 argument  1 = o2_bnl.nw



============================== echo of input deck ==============================
echo
start o2_bnl

geometry units angstrom
O        0.0000000000      0.0000000000      0.60066850000
O        0.0000000000      0.0000000000     -0.60066850000
symmetry c1
end

basis spherical
 * library "cc-pVTZ"
end

BASIS "cd basis" print
O    S
          9.57843253E+02         0.56249624
          2.81967425E+02         1.49108985
          9.01998320E+01         3.86547733
O    S
          3.11382990E+01         3.60577725
O    S
          1.14937320E+01         0.23005858
O    S
          4.48404900E+00        -0.05015769
O    S
          1.82350400E+00         1.05070463
O    S
          7.60903000E-01         0.58565488
O    S
          3.20292000E-01         0.07499129
O    P
          6.14708863E-01        -0.08557844
O    P
          1.47530127E+00         0.04179996
O    P
          3.69562968E+00        -0.05855108
O    D
          7.65267200E+00         0.09106873
O    D
          2.21786800E+00         0.11163134
O    D
          6.82337000E-01         0.04600666
O    F
          2.19178082E+00         1.00000000
END

set int:cando_txs f

dft
 direct
 xc xbnl07 0.90 lyp 1.00 hfexch 1.00
 cam 0.5 cam_alpha 0.0 cam_beta 1.0
 odft
 mult 3
end
task dft energy

driver
 maxiter 100
end
task dft optimize

tddft
 nroots 5
end
task tddft
================================================================================


                                         
                                         


              Northwest Computational Chemistry Package (NWChem) 6.3
              ------------------------------------------------------


                    Environmental Molecular Sciences Laboratory
                       Pacific Northwest National Laboratory
                                Richland, WA 99352

                              Copyright (c) 1994-2012
                       Pacific Northwest National Laboratory
                            Battelle Memorial Institute

             NWChem is an open-source computational chemistry package
                        distributed under the terms of the
                      Educational Community License (ECL) 2.0
             A copy of the license is included with this distribution
                              in the LICENSE.TXT file

                                  ACKNOWLEDGMENT
                                  --------------

            This software and its documentation were developed at the
            EMSL at Pacific Northwest National Laboratory, a multiprogram
            national laboratory, operated for the U.S. Department of Energy
            by Battelle under Contract Number DE-AC05-76RL01830. Support
            for this work was provided by the Department of Energy Office
            of Biological and Environmental Research, Office of Basic
            Energy Sciences, and the Office of Advanced Scientific Computing.


           Job information
           ---------------

    hostname        = orion
    program         = ../../../bin/LINUX64/nwchem
    date            = Sat May  4 13:24:31 2013

    compiled        = Sat_May_04_13:15:13_2013
    source          = /home/niri/nwchem/nwchem-6.3
    nwchem branch   = 6.3
    nwchem revision = 23861
    ga revision     = 10285
    input           = o2_bnl.nw
    prefix          = o2_bnl.
    data base       = ./o2_bnl.db
    status          = startup
    nproc           =        4
    time left       =     -1s



           Memory information
           ------------------

    heap     =   13107201 doubles =    100.0 Mbytes
    stack    =   13107201 doubles =    100.0 Mbytes
    global   =   26214400 doubles =    200.0 Mbytes (distinct from heap & stack)
    total    =   52428802 doubles =    400.0 Mbytes
    verify   = yes
    hardfail = no 


           Directory information
           ---------------------

  0 permanent = .
  0 scratch   = .




                                NWChem Input Module
                                -------------------



 Scaling coordinates for geometry "geometry" by  1.889725989
 (inverse scale =  0.529177249)

 Turning off AUTOSYM since
 SYMMETRY directive was detected!


          ------
          auto-z
          ------


                             Geometry "geometry" -> ""
                             -------------------------

 Output coordinates in angstroms (scale by  1.889725989 to convert to a.u.)

  No.       Tag          Charge          X              Y              Z
 ---- ---------------- ---------- -------------- -------------- --------------
    1 O                    8.0000     0.00000000     0.00000000     0.60066850
    2 O                    8.0000     0.00000000     0.00000000    -0.60066850

      Atomic Mass 
      ----------- 

      O                 15.994910


 Effective nuclear repulsion energy (a.u.)      28.1913767211

            Nuclear Dipole moment (a.u.) 
            ----------------------------
        X                 Y               Z
 ---------------- ---------------- ----------------
     0.0000000000     0.0000000000     0.0000000000



                                Z-matrix (autoz)
                                -------- 

 Units are Angstrom for bonds and degrees for angles

      Type          Name      I     J     K     L     M      Value
      ----------- --------  ----- ----- ----- ----- ----- ----------
    1 Stretch                  1     2                       1.20134


            XYZ format geometry
            -------------------
     2
 geometry
 O                     0.00000000     0.00000000     0.60066850
 O                     0.00000000     0.00000000    -0.60066850

 ==============================================================================
                                internuclear distances
 ------------------------------------------------------------------------------
       center one      |      center two      | atomic units |  angstroms
 ------------------------------------------------------------------------------
    2 O                |   1 O                |     2.27020  |     1.20134
 ------------------------------------------------------------------------------
                         number of included internuclear distances:          1
 ==============================================================================



  library name resolved from: environment
  library file name is: </home/niri/nwchem/nwchem-6.3/src/basis/libraries/>
  


 Summary of "ao basis" -> "" (spherical)
 ------------------------------------------------------------------------------
       Tag                 Description            Shells   Functions and Types
 ---------------- ------------------------------  ------  ---------------------
 *                          cc-pVTZ                   on all atoms 


  library name resolved from: environment
  library file name is: </home/niri/nwchem/nwchem-6.3/src/basis/libraries/>
  
                      Basis "cd basis" -> "" (cartesian)
                      -----
  O (Oxygen)
  ----------
            Exponent  Coefficients 
       -------------- ---------------------------------------------------------
  1 S  9.57843253E+02  0.562496
  1 S  2.81967425E+02  1.491090
  1 S  9.01998320E+01  3.865477

  2 S  3.11382990E+01  3.605777

  3 S  1.14937320E+01  0.230059

  4 S  4.48404900E+00 -0.050158

  5 S  1.82350400E+00  1.050705

  6 S  7.60903000E-01  0.585655

  7 S  3.20292000E-01  0.074991

  8 P  6.14708863E-01 -0.085578

  9 P  1.47530127E+00  0.041800

 10 P  3.69562968E+00 -0.058551

 11 D  7.65267200E+00  0.091069

 12 D  2.21786800E+00  0.111631

 13 D  6.82337000E-01  0.046007

 14 F  2.19178082E+00  1.000000



 Summary of "cd basis" -> "" (cartesian)
 ------------------------------------------------------------------------------
       Tag                 Description            Shells   Functions and Types
 ---------------- ------------------------------  ------  ---------------------
 O                       user specified             14       44   7s3p3d1f



                                 NWChem DFT Module
                                 -----------------


                      Basis "ao basis" -> "ao basis" (spherical)
                      -----
  O (Oxygen)
  ----------
            Exponent  Coefficients 
       -------------- ---------------------------------------------------------
  1 S  1.53300000E+04  0.000508
  1 S  2.29900000E+03  0.003929
  1 S  5.22400000E+02  0.020243
  1 S  1.47300000E+02  0.079181
  1 S  4.75500000E+01  0.230687
  1 S  1.67600000E+01  0.433118
  1 S  6.20700000E+00  0.350260
  1 S  6.88200000E-01 -0.008154

  2 S  1.53300000E+04 -0.000115
  2 S  2.29900000E+03 -0.000895
  2 S  5.22400000E+02 -0.004636
  2 S  1.47300000E+02 -0.018724
  2 S  4.75500000E+01 -0.058463
  2 S  1.67600000E+01 -0.136463
  2 S  6.20700000E+00 -0.175740
  2 S  6.88200000E-01  0.603418

  3 S  1.75200000E+00  1.000000

  4 S  2.38400000E-01  1.000000

  5 P  3.44600000E+01  0.015928
  5 P  7.74900000E+00  0.099740
  5 P  2.28000000E+00  0.310492

  6 P  7.15600000E-01  1.000000

  7 P  2.14000000E-01  1.000000

  8 D  2.31400000E+00  1.000000

  9 D  6.45000000E-01  1.000000

 10 F  1.42800000E+00  1.000000



 Summary of "ao basis" -> "ao basis" (spherical)
 ------------------------------------------------------------------------------
       Tag                 Description            Shells   Functions and Types
 ---------------- ------------------------------  ------  ---------------------
 O                          cc-pVTZ                 10       30   4s3p2d1f


  int_init: cando_txs set to always be  F
  Caching 1-el integrals 

            General Information
            -------------------
          SCF calculation type: DFT
          Wavefunction type:  spin polarized.
          No. of atoms     :     2
          No. of electrons :    16
           Alpha electrons :     9
            Beta electrons :     7
          Charge           :     0
          Spin multiplicity:     3
          Use of symmetry is: off; symmetry adaption is: off
          Maximum number of iterations:  30
          This is a Direct SCF calculation.
          AO basis - number of functions:    60
                     number of shells:    20
          A Charge density fitting basis will be used.
          CD basis - number of functions:    88
                     number of shells:    28
          Convergence on energy requested: 1.00D-06
          Convergence on density requested: 1.00D-05
          Convergence on gradient requested: 5.00D-04

              XC Information
              --------------
                     Hartree-Fock (Exact) Exchange  1.000          
                   LC-BNL 2007 Exchange Functional  0.900 local    
              Lee-Yang-Parr Correlation Functional  1.000          

           Range-Separation Parameters        
           ---------------------------
           Alpha           :  0.00
           Beta            :  1.00
           Gamma           :  0.50
           Short-Range HF  :     F

             Grid Information
             ----------------
          Grid used for XC integration:  medium    
          Radial quadrature: Mura-Knowles        
          Angular quadrature: Lebedev. 
          Tag              B.-S. Rad. Rad. Pts. Rad. Cut. Ang. Pts.
          ---              ---------- --------- --------- ---------
          O                   0.60       49           5.0       434
          Grid pruning is: on 
          Number of quadrature shells:    98
          Spatial weights used:  Erf1

          Convergence Information
          -----------------------
          Convergence aids based upon iterative change in 
          total energy or number of iterations. 
          Levelshifting, if invoked, occurs when the 
          HOMO/LUMO gap drops below (HL_TOL): 1.00D-02
          DIIS, if invoked, will attempt to extrapolate 
          using up to (NFOCK): 10 stored Fock matrices.

                    Damping( 0%)  Levelshifting(0.5)       DIIS
                  --------------- ------------------- ---------------
          dE  on:    start            ASAP                start   
          dE off:    2 iters         30 iters            30 iters 


      Screening Tolerance Information
      -------------------------------
          Density screening/tol_rho: 1.00D-10
          AO Gaussian exp screening on grid/accAOfunc:  14
          CD Gaussian exp screening on grid/accCDfunc:  20
          XC Gaussian exp screening on grid/accXCfunc:  20
          Schwarz screening/accCoul: 1.00D-08


      Superposition of Atomic Density Guess
      -------------------------------------

 Sum of atomic energies:        -149.56133901

      Non-variational initial energy
      ------------------------------

 Total energy =    -149.655664
 1-e energy   =    -262.423929
 2-e energy   =      84.576889
 HOMO         =      -0.194544
 LUMO         =      -0.194544

   Time after variat. SCF:      0.3

      3 Center 2 Electron Integral Information
      ----------------------------------------
          Maximum number of 3-center 2e- integrals is:          316800.
            This is reduced with Schwarz screening to:          233464.
            Incore requires a per proc buffer size of:           96958.
                  The minimum integral buffer size is:            8624
          Minimum dble words available (all nodes) is:        26212759
                   This is reduced (for later use) to:        25948530
                             Suggested buffer size is:           96958

          Incore memory use for 3-center 2e- integrals is turned off. 
   Time prior to 1st pass:      0.3

 Grid_pts file          = ./o2_bnl.gridpts.0
 Record size in doubles =  12289        No. of grid_pts per rec  =   3070
 Max. records in memory =      5        Max. recs in file   =     19900


           Memory utilization after 1st SCF pass: 
           Heap Space remaining (MW):       13.04            13044677
          Stack Space remaining (MW):       13.11            13106587

   convergence    iter        energy       DeltaE   RMS-Dens  Diis-err    time
 ---------------- ----- ----------------- --------- --------- ---------  ------
 d= 0,ls=0.0,diis     1   -147.9443047923 -1.76D+02  3.29D-03  5.33D-01     1.3
                                                     2.36D-03  4.40D-01
 d= 0,ls=0.0,diis     2   -147.9896772240 -4.54D-02  8.28D-04  1.41D-02     2.4
                                                     9.84D-04  1.65D-02
 d= 0,ls=0.0,diis     3   -147.9935985161 -3.92D-03  4.29D-04  3.72D-03     3.4
                                                     1.68D-04  1.65D-03
 d= 0,ls=0.0,diis     4   -147.9943898573 -7.91D-04  6.90D-05  1.58D-05     4.4
                                                     9.32D-05  7.36D-05
 d= 0,ls=0.0,diis     5   -147.9944202121 -3.04D-05  3.10D-05  3.07D-06     5.5
                                                     2.72D-05  2.34D-06
  Resetting Diis
 d= 0,ls=0.0,diis     6   -147.9944224188 -2.21D-06  3.94D-06  5.50D-08     6.5
                                                     4.15D-06  8.08D-08
 d= 0,ls=0.0,diis     7   -147.9944224709 -5.21D-08  4.33D-07  1.38D-09     7.5
                                                     1.93D-07  3.93D-10


         Total DFT energy =     -147.994422470926
      One electron energy =     -261.385379264136
           Coulomb energy =       99.699333531820
    Exchange-Corr. energy =      -14.499753459697
 Nuclear repulsion energy =       28.191376721087

 Numeric. integr. density =       16.000000464214

     Total iterative time =      7.2s



                    DFT Final Alpha Molecular Orbital Analysis
                    ------------------------------------------

 Vector    1  Occ=1.000000D+00  E=-1.883218D+01
              MO Center= -2.2D-17, -4.9D-17,  1.5D-03, r^2= 3.8D-01
   Bfn.  Coefficient  Atom+Function         Bfn.  Coefficient  Atom+Function  
  ----- ------------  ---------------      ----- ------------  ---------------
     1      0.671167  1 O  s                 31     -0.669463  2 O  s          

 Vector    2  Occ=1.000000D+00  E=-1.883200D+01
              MO Center= -1.8D-17,  1.3D-17, -1.5D-03, r^2= 3.8D-01
   Bfn.  Coefficient  Atom+Function         Bfn.  Coefficient  Atom+Function  
  ----- ------------  ---------------      ----- ------------  ---------------
     1      0.674133  1 O  s                 31      0.675824  2 O  s          

 Vector    3  Occ=1.000000D+00  E=-1.454409D+00
              MO Center=  2.9D-16,  8.4D-17,  1.4D-07, r^2= 4.7D-01
   Bfn.  Coefficient  Atom+Function         Bfn.  Coefficient  Atom+Function  
  ----- ------------  ---------------      ----- ------------  ---------------
     2      0.351574  1 O  s                 32      0.351574  2 O  s          
     4      0.163228  1 O  s                 34      0.163228  2 O  s          

 Vector    4  Occ=1.000000D+00  E=-9.631442D-01
              MO Center=  7.2D-18, -2.0D-16,  2.8D-07, r^2= 1.1D+00
   Bfn.  Coefficient  Atom+Function         Bfn.  Coefficient  Atom+Function  
  ----- ------------  ---------------      ----- ------------  ---------------
     2      0.398251  1 O  s                 32     -0.398251  2 O  s          
     4      0.338984  1 O  s                 34     -0.338984  2 O  s          

 Vector    5  Occ=1.000000D+00  E=-7.090356D-01
              MO Center=  2.3D-17,  5.0D-18,  4.2D-07, r^2= 8.4D-01
   Bfn.  Coefficient  Atom+Function         Bfn.  Coefficient  Atom+Function  
  ----- ------------  ---------------      ----- ------------  ---------------
     8      0.313005  1 O  px                38      0.313004  2 O  px         
     5      0.265330  1 O  px                35      0.265330  2 O  px         
    11      0.191945  1 O  px                41      0.191945  2 O  px         

 Vector    6  Occ=1.000000D+00  E=-7.090356D-01
              MO Center= -7.7D-18, -1.6D-15,  4.2D-07, r^2= 8.4D-01
   Bfn.  Coefficient  Atom+Function         Bfn.  Coefficient  Atom+Function  
  ----- ------------  ---------------      ----- ------------  ---------------
     9      0.313005  1 O  py                39      0.313004  2 O  py         
     6      0.265330  1 O  py                36      0.265330  2 O  py         
    12      0.191945  1 O  py                42      0.191945  2 O  py         

 Vector    7  Occ=1.000000D+00  E=-6.838898D-01
              MO Center=  2.0D-16,  2.0D-15, -3.6D-07, r^2= 1.1D+00
   Bfn.  Coefficient  Atom+Function         Bfn.  Coefficient  Atom+Function  
  ----- ------------  ---------------      ----- ------------  ---------------
    10      0.304013  1 O  pz                40     -0.304013  2 O  pz         
     7      0.266739  1 O  pz                37     -0.266739  2 O  pz         
     4      0.241213  1 O  s                 34      0.241214  2 O  s          
    13      0.167220  1 O  pz                43     -0.167220  2 O  pz         

 Vector    8  Occ=1.000000D+00  E=-4.324338D-01
              MO Center= -5.3D-16, -1.5D-17, -4.1D-07, r^2= 9.7D-01
   Bfn.  Coefficient  Atom+Function         Bfn.  Coefficient  Atom+Function  
  ----- ------------  ---------------      ----- ------------  ---------------
     8      0.361482  1 O  px                38     -0.361482  2 O  px         
    11      0.339418  1 O  px                41     -0.339418  2 O  px         
     5      0.307629  1 O  px                35     -0.307629  2 O  px         

 Vector    9  Occ=1.000000D+00  E=-4.324338D-01
              MO Center= -2.2D-17, -5.2D-16, -4.1D-07, r^2= 9.7D-01
   Bfn.  Coefficient  Atom+Function         Bfn.  Coefficient  Atom+Function  
  ----- ------------  ---------------      ----- ------------  ---------------
     9      0.361482  1 O  py                39     -0.361482  2 O  py         
    12      0.339418  1 O  py                42     -0.339418  2 O  py         
     6      0.307629  1 O  py                36     -0.307629  2 O  py         

 Vector   10  Occ=0.000000D+00  E= 3.270424D-01
              MO Center= -8.5D-17, -2.9D-16,  1.4D-08, r^2= 2.1D+00
   Bfn.  Coefficient  Atom+Function         Bfn.  Coefficient  Atom+Function  
  ----- ------------  ---------------      ----- ------------  ---------------
     4      1.871244  1 O  s                 34     -1.871244  2 O  s          
    13     -1.491052  1 O  pz                43     -1.491052  2 O  pz         
    10     -0.341358  1 O  pz                40     -0.341358  2 O  pz         
     2      0.238064  1 O  s                 32     -0.238064  2 O  s          
     7     -0.220174  1 O  pz                37     -0.220174  2 O  pz         

 Vector   11  Occ=0.000000D+00  E= 6.256274D-01
              MO Center= -6.1D-18,  6.1D-17,  6.0D-07, r^2= 2.1D+00
   Bfn.  Coefficient  Atom+Function         Bfn.  Coefficient  Atom+Function  
  ----- ------------  ---------------      ----- ------------  ---------------
    11      0.703407  1 O  px                41      0.703406  2 O  px         
     8     -0.508487  1 O  px                38     -0.508487  2 O  px         
     5     -0.183368  1 O  px                35     -0.183368  2 O  px         

 Vector   12  Occ=0.000000D+00  E= 6.256274D-01
              MO Center=  5.6D-17,  4.2D-16,  6.0D-07, r^2= 2.1D+00
   Bfn.  Coefficient  Atom+Function         Bfn.  Coefficient  Atom+Function  
  ----- ------------  ---------------      ----- ------------  ---------------
    12      0.703407  1 O  py                42      0.703406  2 O  py         
     9     -0.508487  1 O  py                39     -0.508487  2 O  py         
     6     -0.183368  1 O  py                36     -0.183368  2 O  py         

 Vector   13  Occ=0.000000D+00  E= 6.308500D-01
              MO Center= -8.1D-16, -2.6D-15,  2.6D-06, r^2= 2.5D+00
   Bfn.  Coefficient  Atom+Function         Bfn.  Coefficient  Atom+Function  
  ----- ------------  ---------------      ----- ------------  ---------------
     4      2.036083  1 O  s                 34     -2.036084  2 O  s          
    13     -1.756411  1 O  pz                43     -1.756408  2 O  pz         
     7      0.323911  1 O  pz                37      0.323911  2 O  pz         
    10      0.321806  1 O  pz                40      0.321805  2 O  pz         
    21      0.304190  1 O  d  0              51     -0.304190  2 O  d  0       

 Vector   14  Occ=0.000000D+00  E= 6.680029D-01
              MO Center=  3.3D-16, -1.2D-15, -2.5D-06, r^2= 3.0D+00
   Bfn.  Coefficient  Atom+Function         Bfn.  Coefficient  Atom+Function  
  ----- ------------  ---------------      ----- ------------  ---------------
    13      1.015361  1 O  pz                43     -1.015365  2 O  pz         
    10     -0.468690  1 O  pz                40      0.468691  2 O  pz         
     4      0.349511  1 O  s                 34      0.349506  2 O  s          

 Vector   15  Occ=0.000000D+00  E= 7.411535D-01
              MO Center=  2.5D-15,  2.1D-16, -5.9D-07, r^2= 2.7D+00
   Bfn.  Coefficient  Atom+Function         Bfn.  Coefficient  Atom+Function  
  ----- ------------  ---------------      ----- ------------  ---------------
    11      1.296201  1 O  px                41     -1.296201  2 O  px         
     8     -0.493010  1 O  px                38      0.493011  2 O  px         
     5     -0.183555  1 O  px                35      0.183555  2 O  px         

 Vector   16  Occ=0.000000D+00  E= 7.411535D-01
              MO Center= -1.7D-16,  8.6D-15, -5.9D-07, r^2= 2.7D+00
   Bfn.  Coefficient  Atom+Function         Bfn.  Coefficient  Atom+Function  
  ----- ------------  ---------------      ----- ------------  ---------------
    12      1.296201  1 O  py                42     -1.296201  2 O  py         
     9     -0.493010  1 O  py                39      0.493011  2 O  py         
     6     -0.183555  1 O  py                36      0.183555  2 O  py         

 Vector   17  Occ=0.000000D+00  E= 8.020368D-01
              MO Center= -1.8D-16,  2.1D-16, -5.5D-08, r^2= 1.5D+00
   Bfn.  Coefficient  Atom+Function         Bfn.  Coefficient  Atom+Function  
  ----- ------------  ---------------      ----- ------------  ---------------
     4     -0.938094  1 O  s                 34     -0.938092  2 O  s          
     2      0.933137  1 O  s                 32      0.933137  2 O  s          
     1      0.324222  1 O  s                 31      0.324222  2 O  s          
     3      0.174835  1 O  s                 33      0.174835  2 O  s          

 Vector   18  Occ=0.000000D+00  E= 1.344682D+00
              MO Center= -2.3D-15, -7.1D-15, -7.9D-08, r^2= 2.2D+00
   Bfn.  Coefficient  Atom+Function         Bfn.  Coefficient  Atom+Function  
  ----- ------------  ---------------      ----- ------------  ---------------
     4      5.447996  1 O  s                 34     -5.447996  2 O  s          
    13     -2.405903  1 O  pz                43     -2.405903  2 O  pz         
     2     -1.110908  1 O  s                 32      1.110908  2 O  s          
    10     -0.525401  1 O  pz                40     -0.525401  2 O  pz         
     1     -0.397173  1 O  s                 31      0.397173  2 O  s          

 Vector   19  Occ=0.000000D+00  E= 1.351217D+00
              MO Center=  1.0D-16, -6.2D-16,  1.7D-07, r^2= 1.0D+00
   Bfn.  Coefficient  Atom+Function         Bfn.  Coefficient  Atom+Function  
  ----- ------------  ---------------      ----- ------------  ---------------
    19      0.648029  1 O  d -2              49      0.648028  2 O  d -2       


                     DFT Final Beta Molecular Orbital Analysis
                     -----------------------------------------

 Vector    1  Occ=1.000000D+00  E=-1.880462D+01
              MO Center= -5.4D-18,  2.2D-17,  1.1D-03, r^2= 3.8D-01
   Bfn.  Coefficient  Atom+Function         Bfn.  Coefficient  Atom+Function  
  ----- ------------  ---------------      ----- ------------  ---------------
     1      0.676653  1 O  s                 31      0.675421  2 O  s          

 Vector    2  Occ=1.000000D+00  E=-1.880438D+01
              MO Center= -1.3D-18,  8.0D-18, -1.1D-03, r^2= 3.8D-01
   Bfn.  Coefficient  Atom+Function         Bfn.  Coefficient  Atom+Function  
  ----- ------------  ---------------      ----- ------------  ---------------
     1      0.671041  1 O  s                 31     -0.672280  2 O  s          

 Vector    3  Occ=1.000000D+00  E=-1.408812D+00
              MO Center=  2.3D-16,  2.7D-16,  1.1D-07, r^2= 4.6D-01
   Bfn.  Coefficient  Atom+Function         Bfn.  Coefficient  Atom+Function  
  ----- ------------  ---------------      ----- ------------  ---------------
     2      0.338314  1 O  s                 32      0.338314  2 O  s          
     4      0.168134  1 O  s                 34      0.168134  2 O  s          

 Vector    4  Occ=1.000000D+00  E=-8.773266D-01
              MO Center=  2.0D-16,  3.1D-16,  4.0D-07, r^2= 1.1D+00
   Bfn.  Coefficient  Atom+Function         Bfn.  Coefficient  Atom+Function  
  ----- ------------  ---------------      ----- ------------  ---------------
     2      0.388776  1 O  s                 32     -0.388776  2 O  s          
     4      0.320704  1 O  s                 34     -0.320704  2 O  s          

 Vector    5  Occ=1.000000D+00  E=-6.439884D-01
              MO Center= -1.0D-15,  8.8D-16, -4.6D-07, r^2= 1.2D+00
   Bfn.  Coefficient  Atom+Function         Bfn.  Coefficient  Atom+Function  
  ----- ------------  ---------------      ----- ------------  ---------------
    10      0.298565  1 O  pz                40     -0.298565  2 O  pz         
     7      0.261364  1 O  pz                37     -0.261364  2 O  pz         
     4      0.256393  1 O  s                 34      0.256394  2 O  s          
    13      0.175898  1 O  pz                43     -0.175898  2 O  pz         

 Vector    6  Occ=1.000000D+00  E=-6.027730D-01
              MO Center=  1.2D-15, -1.3D-16,  1.1D-07, r^2= 8.7D-01
   Bfn.  Coefficient  Atom+Function         Bfn.  Coefficient  Atom+Function  
  ----- ------------  ---------------      ----- ------------  ---------------
     8      0.294424  1 O  px                38      0.294424  2 O  px         
     5      0.251019  1 O  px                35      0.251019  2 O  px         
    11      0.217396  1 O  px                41      0.217396  2 O  px         

 Vector    7  Occ=1.000000D+00  E=-6.027730D-01
              MO Center=  3.5D-16, -6.7D-16,  1.1D-07, r^2= 8.7D-01
   Bfn.  Coefficient  Atom+Function         Bfn.  Coefficient  Atom+Function  
  ----- ------------  ---------------      ----- ------------  ---------------
     9      0.294424  1 O  py                39      0.294424  2 O  py         
     6      0.251019  1 O  py                36      0.251019  2 O  py         
    12      0.217396  1 O  py                42      0.217396  2 O  py         

 Vector    8  Occ=0.000000D+00  E= 1.948244D-02
              MO Center= -4.0D-16,  1.4D-16, -1.1D-07, r^2= 1.1D+00
   Bfn.  Coefficient  Atom+Function         Bfn.  Coefficient  Atom+Function  
  ----- ------------  ---------------      ----- ------------  ---------------
    11      0.449376  1 O  px                41     -0.449376  2 O  px         
     8      0.321375  1 O  px                38     -0.321375  2 O  px         
     5      0.285836  1 O  px                35     -0.285836  2 O  px         

 Vector    9  Occ=0.000000D+00  E= 1.948244D-02
              MO Center=  8.7D-17, -5.1D-16, -1.0D-07, r^2= 1.1D+00
   Bfn.  Coefficient  Atom+Function         Bfn.  Coefficient  Atom+Function  
  ----- ------------  ---------------      ----- ------------  ---------------
    12      0.449376  1 O  py                42     -0.449376  2 O  py         
     9      0.321375  1 O  py                39     -0.321375  2 O  py         
     6      0.285836  1 O  py                36     -0.285836  2 O  py         

 Vector   10  Occ=0.000000D+00  E= 3.574261D-01
              MO Center= -1.1D-16,  7.2D-17,  4.2D-08, r^2= 2.3D+00
   Bfn.  Coefficient  Atom+Function         Bfn.  Coefficient  Atom+Function  
  ----- ------------  ---------------      ----- ------------  ---------------
     4      2.070623  1 O  s                 34     -2.070624  2 O  s          
    13     -1.631161  1 O  pz                43     -1.631161  2 O  pz         
    10     -0.321336  1 O  pz                40     -0.321336  2 O  pz         
     2      0.237939  1 O  s                 32     -0.237939  2 O  s          
     7     -0.194309  1 O  pz                37     -0.194309  2 O  pz         

 Vector   11  Occ=0.000000D+00  E= 6.516069D-01
              MO Center= -3.7D-17,  4.9D-16,  5.8D-07, r^2= 2.1D+00
   Bfn.  Coefficient  Atom+Function         Bfn.  Coefficient  Atom+Function  
  ----- ------------  ---------------      ----- ------------  ---------------
    11      0.698133  1 O  px                41      0.698132  2 O  px         
     8     -0.525845  1 O  px                38     -0.525844  2 O  px         
     5     -0.185190  1 O  px                35     -0.185189  2 O  px         

 Vector   12  Occ=0.000000D+00  E= 6.516069D-01
              MO Center= -7.8D-16, -3.6D-16,  5.8D-07, r^2= 2.1D+00
   Bfn.  Coefficient  Atom+Function         Bfn.  Coefficient  Atom+Function  
  ----- ------------  ---------------      ----- ------------  ---------------
    12      0.698133  1 O  py                42      0.698132  2 O  py         
     9     -0.525845  1 O  py                39     -0.525844  2 O  py         
     6     -0.185190  1 O  py                36     -0.185189  2 O  py         

 Vector   13  Occ=0.000000D+00  E= 6.569495D-01
              MO Center= -6.4D-16,  1.9D-16,  4.3D-06, r^2= 2.3D+00
   Bfn.  Coefficient  Atom+Function         Bfn.  Coefficient  Atom+Function  
  ----- ------------  ---------------      ----- ------------  ---------------
     4      1.946232  1 O  s                 34     -1.946234  2 O  s          
    13     -1.670987  1 O  pz                43     -1.670983  2 O  pz         
    10      0.342616  1 O  pz                40      0.342614  2 O  pz         
     7      0.336046  1 O  pz                37      0.336045  2 O  pz         
    21      0.303725  1 O  d  0              51     -0.303725  2 O  d  0       

 Vector   14  Occ=0.000000D+00  E= 6.764758D-01
              MO Center= -1.9D-17,  6.4D-17, -4.3D-06, r^2= 2.9D+00
   Bfn.  Coefficient  Atom+Function         Bfn.  Coefficient  Atom+Function  
  ----- ------------  ---------------      ----- ------------  ---------------
    13      1.019290  1 O  pz                43     -1.019297  2 O  pz         
    10     -0.474450  1 O  pz                40      0.474451  2 O  pz         
     4      0.302996  1 O  s                 34      0.302988  2 O  s          

 Vector   15  Occ=0.000000D+00  E= 7.765128D-01
              MO Center=  9.2D-16, -5.2D-17, -5.7D-07, r^2= 2.5D+00
   Bfn.  Coefficient  Atom+Function         Bfn.  Coefficient  Atom+Function  
  ----- ------------  ---------------      ----- ------------  ---------------
    11      1.269074  1 O  px                41     -1.269075  2 O  px         
     8     -0.530886  1 O  px                38      0.530886  2 O  px         
     5     -0.203455  1 O  px                35      0.203455  2 O  px         

 Vector   16  Occ=0.000000D+00  E= 7.765128D-01
              MO Center= -7.5D-17, -4.7D-16, -5.7D-07, r^2= 2.5D+00
   Bfn.  Coefficient  Atom+Function         Bfn.  Coefficient  Atom+Function  
  ----- ------------  ---------------      ----- ------------  ---------------
    12      1.269074  1 O  py                42     -1.269075  2 O  py         
     9     -0.530886  1 O  py                39      0.530886  2 O  py         
     6     -0.203455  1 O  py                36      0.203455  2 O  py         

 Vector   17  Occ=0.000000D+00  E= 8.224954D-01
              MO Center= -2.8D-17,  6.4D-16, -7.9D-08, r^2= 1.5D+00
   Bfn.  Coefficient  Atom+Function         Bfn.  Coefficient  Atom+Function  
  ----- ------------  ---------------      ----- ------------  ---------------
     4     -0.951343  1 O  s                 34     -0.951342  2 O  s          
     2      0.942339  1 O  s                 32      0.942339  2 O  s          
     1      0.327811  1 O  s                 31      0.327811  2 O  s          
     3      0.170884  1 O  s                 33      0.170884  2 O  s          

 Vector   18  Occ=0.000000D+00  E= 1.373508D+00
              MO Center= -1.4D-16, -3.8D-16, -7.2D-08, r^2= 2.2D+00
   Bfn.  Coefficient  Atom+Function         Bfn.  Coefficient  Atom+Function  
  ----- ------------  ---------------      ----- ------------  ---------------
     4      5.472368  1 O  s                 34     -5.472368  2 O  s          
    13     -2.405422  1 O  pz                43     -2.405422  2 O  pz         
     2     -1.116773  1 O  s                 32      1.116773  2 O  s          
    10     -0.543164  1 O  pz                40     -0.543164  2 O  pz         
     1     -0.400622  1 O  s                 31      0.400622  2 O  s          

 Vector   19  Occ=0.000000D+00  E= 1.386728D+00
              MO Center=  1.1D-15, -3.7D-16,  1.4D-07, r^2= 1.0D+00
   Bfn.  Coefficient  Atom+Function         Bfn.  Coefficient  Atom+Function  
  ----- ------------  ---------------      ----- ------------  ---------------
    19      0.649624  1 O  d -2              49      0.649624  2 O  d -2       


   alpha - beta orbital overlaps 
   ----------------------------- 


   alpha      1      2      3      4      5      6      7      8      9     10
    beta      2      1      3      4      6      7      5      8      9     10
 overlap   1.000  1.000  1.000  1.000  0.999  0.999  1.000  0.996  0.996  0.997


   alpha     11     12     13     14     15     16     17     18     19     20
    beta     11     12     13     14     15     16     17     18     19     20
 overlap   0.999  0.999  0.998  0.999  0.996  0.996  0.999  1.000  1.000  1.000


   alpha     21     22     23     24     25     26     27     28     29     30
    beta     21     22     23     24     25     26     27     28     29     30
 overlap   1.000  1.000  1.000  1.000  1.000  1.000  1.000  1.000  1.000  1.000


   alpha     31     32     33     34     35     36     37     38     39     40
    beta     31     32     33     34     35     36     37     38     39     41
 overlap   1.000  1.000  1.000  1.000  1.000  1.000  1.000  1.000  1.000  0.773


   alpha     41     42     43     44     45     46     47     48     49     50
    beta     40     42     43     44     45     46     47     48     49     50
 overlap   0.773  0.754  0.754  1.000  1.000  1.000  1.000  1.000  1.000  1.000


   alpha     51     52     53     54     55     56     57     58     59     60
    beta     51     52     53     54     55     56     57     58     59     60
 overlap   1.000  1.000  1.000  1.000  1.000  1.000  1.000  1.000  1.000  1.000


     --------------------------
     Expectation value of S2:  
     --------------------------
      <S2> =      2.0058 (Exact =     2.0000)


 center of mass
 --------------
 x =   0.00000000 y =   0.00000000 z =   0.00000000

 moments of inertia (a.u.)
 ------------------
          41.217266175299           0.000000000000           0.000000000000
           0.000000000000          41.217266175299           0.000000000000
           0.000000000000           0.000000000000           0.000000000000

     Multipole analysis of the density
     ---------------------------------

     L   x y z        total         alpha         beta         nuclear
     -   - - -        -----         -----         ----         -------
     0   0 0 0      0.000000     -9.000000     -7.000000     16.000000

     1   1 0 0      0.000000      0.000000      0.000000      0.000000
     1   0 1 0      0.000000      0.000000      0.000000      0.000000
     1   0 0 1     -0.000001      0.000000     -0.000001      0.000000

     2   2 0 0     -7.610965     -4.435348     -3.175617      0.000000
     2   1 1 0      0.000000      0.000000      0.000000      0.000000
     2   1 0 1      0.000000      0.000000      0.000000      0.000000
     2   0 2 0     -7.610965     -4.435348     -3.175617      0.000000
     2   0 1 1      0.000000      0.000000      0.000000      0.000000
     2   0 0 2     -8.092450    -16.319577    -12.388064     20.615191


 Task  times  cpu:        7.6s     wall:        8.6s


                                NWChem Input Module
                                -------------------




                           NWChem Geometry Optimization
                           ----------------------------


 maximum gradient threshold         (gmax) =   0.000450
 rms gradient threshold             (grms) =   0.000300
 maximum cartesian step threshold   (xmax) =   0.001800
 rms cartesian step threshold       (xrms) =   0.001200
 fixed trust radius                (trust) =   0.300000
 maximum step size to saddle      (sadstp) =   0.100000
 energy precision                  (eprec) =   5.0D-06
 maximum number of steps          (nptopt) =  100
 initial hessian option           (inhess) =    0
 line search option               (linopt) =    1
 hessian update option            (modupd) =    1
 saddle point option              (modsad) =    0
 initial eigen-mode to follow     (moddir) =    0
 initial variable to follow       (vardir) =    0
 follow first negative mode     (firstneg) =    T
 apply conjugacy                    (opcg) =    F
 source of zmatrix                         =   autoz   


          -------------------
          Energy Minimization
          -------------------


 Names of Z-matrix variables 
    1         

 Variables with the same non-blank name are constrained to be equal


 Using old Hessian from previous optimization

          --------
          Step   0
          --------


                         Geometry "geometry" -> "geometry"
                         ---------------------------------

 Output coordinates in angstroms (scale by  1.889725989 to convert to a.u.)

  No.       Tag          Charge          X              Y              Z
 ---- ---------------- ---------- -------------- -------------- --------------
    1 O                    8.0000     0.00000000     0.00000000     0.60066850
    2 O                    8.0000     0.00000000     0.00000000    -0.60066850

      Atomic Mass 
      ----------- 

      O                 15.994910


 Effective nuclear repulsion energy (a.u.)      28.1913767211

            Nuclear Dipole moment (a.u.) 
            ----------------------------
        X                 Y               Z
 ---------------- ---------------- ----------------
     0.0000000000     0.0000000000     0.0000000000


                                 NWChem DFT Module
                                 -----------------



  The DFT is already converged 

         Total DFT energy =   -147.994422470926

  int_init: cando_txs set to always be  F
  intd_init: cando_txs set to always be  F


                            NWChem DFT Gradient Module
                            --------------------------



  charge          =   0.00
  wavefunction    = open shell

  int_init: cando_txs set to always be  F
  intd_init: cando_txs set to always be  F


                         DFT ENERGY GRADIENTS

    atom               coordinates                        gradient
                 x          y          z           x          y          z
   1 O       0.000000   0.000000   1.135099    0.000000   0.000000  -0.000534
   2 O       0.000000   0.000000  -1.135099    0.000000   0.000000   0.000534

                 ----------------------------------------
                 |  Time  |  1-e(secs)   |  2-e(secs)   |
                 ----------------------------------------
                 |  CPU   |       0.00   |       4.16   |
                 ----------------------------------------
                 |  WALL  |       0.00   |       5.66   |
                 ----------------------------------------

@ Step       Energy      Delta E   Gmax     Grms     Xrms     Xmax   Walltime
@ ---- ---------------- -------- -------- -------- -------- -------- --------
@    0    -147.99442247  0.0D+00  0.00053  0.00053  0.00000  0.00000     15.1
                                                                    



                                Z-matrix (autoz)
                                -------- 

 Units are Angstrom for bonds and degrees for angles

      Type          Name      I     J     K     L     M      Value     Gradient
      ----------- --------  ----- ----- ----- ----- ----- ---------- ----------
    1 Stretch                  1     2                       1.20134   -0.00053


                                 NWChem DFT Module
                                 -----------------


  int_init: cando_txs set to always be  F
  Caching 1-el integrals 

            General Information
            -------------------
          SCF calculation type: DFT
          Wavefunction type:  spin polarized.
          No. of atoms     :     2
          No. of electrons :    16
           Alpha electrons :     9
            Beta electrons :     7
          Charge           :     0
          Spin multiplicity:     3
          Use of symmetry is: off; symmetry adaption is: off
          Maximum number of iterations:  30
          This is a Direct SCF calculation.
          AO basis - number of functions:    60
                     number of shells:    20
          A Charge density fitting basis will be used.
          CD basis - number of functions:    88
                     number of shells:    28
          Convergence on energy requested: 1.00D-06
          Convergence on density requested: 1.00D-05
          Convergence on gradient requested: 5.00D-04

              XC Information
              --------------
                     Hartree-Fock (Exact) Exchange  1.000          
                   LC-BNL 2007 Exchange Functional  0.900 local    
              Lee-Yang-Parr Correlation Functional  1.000          

           Range-Separation Parameters        
           ---------------------------
           Alpha           :  0.00
           Beta            :  1.00
           Gamma           :  0.50
           Short-Range HF  :     F

             Grid Information
             ----------------
          Grid used for XC integration:  medium    
          Radial quadrature: Mura-Knowles        
          Angular quadrature: Lebedev. 
          Tag              B.-S. Rad. Rad. Pts. Rad. Cut. Ang. Pts.
          ---              ---------- --------- --------- ---------
          O                   0.60       49           5.0       434
          Grid pruning is: on 
          Number of quadrature shells:    98
          Spatial weights used:  Erf1

          Convergence Information
          -----------------------
          Convergence aids based upon iterative change in 
          total energy or number of iterations. 
          Levelshifting, if invoked, occurs when the 
          HOMO/LUMO gap drops below (HL_TOL): 1.00D-02
          DIIS, if invoked, will attempt to extrapolate 
          using up to (NFOCK): 10 stored Fock matrices.

                    Damping( 0%)  Levelshifting(0.5)       DIIS
                  --------------- ------------------- ---------------
          dE  on:    start            ASAP                start   
          dE off:    2 iters         30 iters            30 iters 


      Screening Tolerance Information
      -------------------------------
          Density screening/tol_rho: 1.00D-10
          AO Gaussian exp screening on grid/accAOfunc:  14
          CD Gaussian exp screening on grid/accCDfunc:  20
          XC Gaussian exp screening on grid/accXCfunc:  20
          Schwarz screening/accCoul: 1.00D-08


 Loading old vectors from job with title :



   Time after variat. SCF:     12.4

      3 Center 2 Electron Integral Information
      ----------------------------------------
          Maximum number of 3-center 2e- integrals is:          316800.
            This is reduced with Schwarz screening to:          233464.
            Incore requires a per proc buffer size of:           96958.
                  The minimum integral buffer size is:            8624
          Minimum dble words available (all nodes) is:        26212759
                   This is reduced (for later use) to:        25837426
                             Suggested buffer size is:           96958

          Incore memory use for 3-center 2e- integrals is turned off. 
   Time prior to 1st pass:     12.4

 Grid_pts file          = ./o2_bnl.gridpts.0
 Record size in doubles =  12289        No. of grid_pts per rec  =   3070
 Max. records in memory =      5        Max. recs in file   =     19900


           Memory utilization after 1st SCF pass: 
           Heap Space remaining (MW):       13.04            13044677
          Stack Space remaining (MW):       13.11            13106587

   convergence    iter        energy       DeltaE   RMS-Dens  Diis-err    time
 ---------------- ----- ----------------- --------- --------- ---------  ------
 d= 0,ls=0.0,diis     1   -147.9944225483 -1.76D+02  2.94D-06  2.24D-07    13.5
                                                     2.74D-06  2.10D-07
 d= 0,ls=0.0,diis     2   -147.9944226229 -7.46D-08  1.54D-06  1.58D-08    14.5
                                                     8.24D-07  6.49D-09
 d= 0,ls=0.0,diis     3   -147.9944226277 -4.79D-09  2.27D-07  2.19D-09    15.5
                                                     3.00D-07  2.68D-09
 d= 0,ls=0.0,diis     4   -147.9944226285 -8.13D-10  1.19D-07  5.84D-11    16.6
                                                     6.52D-08  2.19D-11
 d= 0,ls=0.0,diis     5   -147.9944226285 -2.71D-11  1.57D-08  3.85D-12    17.6
                                                     1.59D-08  4.18D-12
  Resetting Diis
 d= 0,ls=0.0,diis     6   -147.9944226285 -9.38D-13  7.15D-09  2.60D-12    18.6
                                                     7.70D-09  2.61D-12
 d= 0,ls=0.0,diis     7   -147.9944226285 -8.24D-13  2.10D-09  3.79D-14    19.6
                                                     2.20D-09  3.69D-14


         Total DFT energy =     -147.994422628509
      One electron energy =     -261.371595011765
           Coulomb energy =       99.692505374577
    Exchange-Corr. energy =      -14.499461266617
 Nuclear repulsion energy =       28.184128275296

 Numeric. integr. density =       16.000000469361

     Total iterative time =      7.2s



                    DFT Final Alpha Molecular Orbital Analysis
                    ------------------------------------------

 Vector    1  Occ=1.000000D+00  E=-1.883221D+01
              MO Center= -1.1D-17,  1.4D-17, -5.2D-04, r^2= 3.8D-01
   Bfn.  Coefficient  Atom+Function         Bfn.  Coefficient  Atom+Function  
  ----- ------------  ---------------      ----- ------------  ---------------
     1      0.670028  1 O  s                 31     -0.670615  2 O  s          

 Vector    2  Occ=1.000000D+00  E=-1.883203D+01
              MO Center= -1.3D-19,  9.0D-18,  5.2D-04, r^2= 3.8D-01
   Bfn.  Coefficient  Atom+Function         Bfn.  Coefficient  Atom+Function  
  ----- ------------  ---------------      ----- ------------  ---------------
     1      0.675271  1 O  s                 31      0.674687  2 O  s          

 Vector    3  Occ=1.000000D+00  E=-1.454172D+00
              MO Center= -8.9D-18,  2.0D-16, -4.7D-08, r^2= 4.7D-01
   Bfn.  Coefficient  Atom+Function         Bfn.  Coefficient  Atom+Function  
  ----- ------------  ---------------      ----- ------------  ---------------
     2      0.351593  1 O  s                 32      0.351593  2 O  s          
     4      0.163303  1 O  s                 34      0.163303  2 O  s          

 Vector    4  Occ=1.000000D+00  E=-9.632361D-01
              MO Center=  1.1D-16, -4.3D-17, -9.5D-08, r^2= 1.1D+00
   Bfn.  Coefficient  Atom+Function         Bfn.  Coefficient  Atom+Function  
  ----- ------------  ---------------      ----- ------------  ---------------
     2      0.398273  1 O  s                 32     -0.398273  2 O  s          
     4      0.338950  1 O  s                 34     -0.338950  2 O  s          

 Vector    5  Occ=1.000000D+00  E=-7.089280D-01
              MO Center=  2.9D-16,  9.1D-17, -1.4D-07, r^2= 8.4D-01
   Bfn.  Coefficient  Atom+Function         Bfn.  Coefficient  Atom+Function  
  ----- ------------  ---------------      ----- ------------  ---------------
     8      0.313006  1 O  px                38      0.313007  2 O  px         
     5      0.265331  1 O  px                35      0.265331  2 O  px         
    11      0.191986  1 O  px                41      0.191986  2 O  px         

 Vector    6  Occ=1.000000D+00  E=-7.089280D-01
              MO Center= -7.7D-17,  2.2D-15, -1.4D-07, r^2= 8.4D-01
   Bfn.  Coefficient  Atom+Function         Bfn.  Coefficient  Atom+Function  
  ----- ------------  ---------------      ----- ------------  ---------------
     9      0.313006  1 O  py                39      0.313007  2 O  py         
     6      0.265331  1 O  py                36      0.265331  2 O  py         
    12      0.191986  1 O  py                42      0.191986  2 O  py         

 Vector    7  Occ=1.000000D+00  E=-6.838341D-01
              MO Center= -4.7D-16, -1.2D-15,  1.2D-07, r^2= 1.1D+00
   Bfn.  Coefficient  Atom+Function         Bfn.  Coefficient  Atom+Function  
  ----- ------------  ---------------      ----- ------------  ---------------
    10      0.304035  1 O  pz                40     -0.304035  2 O  pz         
     7      0.266735  1 O  pz                37     -0.266735  2 O  pz         
     4      0.241133  1 O  s                 34      0.241133  2 O  s          
    13      0.167246  1 O  pz                43     -0.167246  2 O  pz         

 Vector    8  Occ=1.000000D+00  E=-4.325356D-01
              MO Center= -3.1D-16,  8.6D-18,  1.4D-07, r^2= 9.7D-01
   Bfn.  Coefficient  Atom+Function         Bfn.  Coefficient  Atom+Function  
  ----- ------------  ---------------      ----- ------------  ---------------
     8      0.361465  1 O  px                38     -0.361465  2 O  px         
    11      0.339327  1 O  px                41     -0.339327  2 O  px         
     5      0.307624  1 O  px                35     -0.307624  2 O  px         

 Vector    9  Occ=1.000000D+00  E=-4.325356D-01
              MO Center=  9.7D-17, -2.0D-16,  1.4D-07, r^2= 9.7D-01
   Bfn.  Coefficient  Atom+Function         Bfn.  Coefficient  Atom+Function  
  ----- ------------  ---------------      ----- ------------  ---------------
     9      0.361465  1 O  py                39     -0.361465  2 O  py         
    12      0.339327  1 O  py                42     -0.339327  2 O  py         
     6      0.307624  1 O  py                36     -0.307624  2 O  py         

 Vector   10  Occ=0.000000D+00  E= 3.267418D-01
              MO Center= -4.5D-17, -6.5D-17, -3.7D-09, r^2= 2.1D+00
   Bfn.  Coefficient  Atom+Function         Bfn.  Coefficient  Atom+Function  
  ----- ------------  ---------------      ----- ------------  ---------------
     4      1.867597  1 O  s                 34     -1.867597  2 O  s          
    13     -1.488935  1 O  pz                43     -1.488935  2 O  pz         
    10     -0.341376  1 O  pz                40     -0.341376  2 O  pz         
     2      0.238005  1 O  s                 32     -0.238005  2 O  s          
     7     -0.220458  1 O  pz                37     -0.220458  2 O  pz         

 Vector   11  Occ=0.000000D+00  E= 6.256581D-01
              MO Center=  1.1D-15,  1.0D-16, -2.1D-07, r^2= 2.1D+00
   Bfn.  Coefficient  Atom+Function         Bfn.  Coefficient  Atom+Function  
  ----- ------------  ---------------      ----- ------------  ---------------
    11      0.703427  1 O  px                41      0.703427  2 O  px         
     8     -0.508525  1 O  px                38     -0.508526  2 O  px         
     5     -0.183396  1 O  px                35     -0.183396  2 O  px         

 Vector   12  Occ=0.000000D+00  E= 6.256581D-01
              MO Center= -5.0D-17,  1.4D-15, -2.1D-07, r^2= 2.1D+00
   Bfn.  Coefficient  Atom+Function         Bfn.  Coefficient  Atom+Function  
  ----- ------------  ---------------      ----- ------------  ---------------
    12      0.703427  1 O  py                42      0.703427  2 O  py         
     9     -0.508525  1 O  py                39     -0.508526  2 O  py         
     6     -0.183396  1 O  py                36     -0.183396  2 O  py         

 Vector   13  Occ=0.000000D+00  E= 6.306854D-01
              MO Center= -5.7D-16,  3.0D-16, -9.0D-07, r^2= 2.5D+00
   Bfn.  Coefficient  Atom+Function         Bfn.  Coefficient  Atom+Function  
  ----- ------------  ---------------      ----- ------------  ---------------
     4      2.035750  1 O  s                 34     -2.035750  2 O  s          
    13     -1.757050  1 O  pz                43     -1.757051  2 O  pz         
     7      0.323693  1 O  pz                37      0.323694  2 O  pz         
    10      0.321852  1 O  pz                40      0.321853  2 O  pz         
    21      0.304042  1 O  d  0              51     -0.304042  2 O  d  0       

 Vector   14  Occ=0.000000D+00  E= 6.680529D-01
              MO Center=  3.5D-18,  1.3D-16,  8.7D-07, r^2= 3.0D+00
   Bfn.  Coefficient  Atom+Function         Bfn.  Coefficient  Atom+Function  
  ----- ------------  ---------------      ----- ------------  ---------------
    13      1.015169  1 O  pz                43     -1.015167  2 O  pz         
    10     -0.468788  1 O  pz                40      0.468788  2 O  pz         
     4      0.349712  1 O  s                 34      0.349714  2 O  s          

 Vector   15  Occ=0.000000D+00  E= 7.411413D-01
              MO Center=  1.2D-15, -5.0D-16,  2.0D-07, r^2= 2.7D+00
   Bfn.  Coefficient  Atom+Function         Bfn.  Coefficient  Atom+Function  
  ----- ------------  ---------------      ----- ------------  ---------------
    11      1.295958  1 O  px                41     -1.295957  2 O  px         
     8     -0.493036  1 O  px                38      0.493036  2 O  px         
     5     -0.183542  1 O  px                35      0.183542  2 O  px         

 Vector   16  Occ=0.000000D+00  E= 7.411413D-01
              MO Center=  5.7D-17,  5.5D-16,  2.0D-07, r^2= 2.7D+00
   Bfn.  Coefficient  Atom+Function         Bfn.  Coefficient  Atom+Function  
  ----- ------------  ---------------      ----- ------------  ---------------
    12      1.295958  1 O  py                42     -1.295957  2 O  py         
     9     -0.493036  1 O  py                39      0.493036  2 O  py         
     6     -0.183542  1 O  py                36      0.183542  2 O  py         

 Vector   17  Occ=0.000000D+00  E= 8.020555D-01
              MO Center= -1.1D-15, -1.3D-15,  1.9D-08, r^2= 1.5D+00
   Bfn.  Coefficient  Atom+Function         Bfn.  Coefficient  Atom+Function  
  ----- ------------  ---------------      ----- ------------  ---------------
     4     -0.938077  1 O  s                 34     -0.938078  2 O  s          
     2      0.933159  1 O  s                 32      0.933159  2 O  s          
     1      0.324235  1 O  s                 31      0.324235  2 O  s          
     3      0.174837  1 O  s                 33      0.174837  2 O  s          

 Vector   18  Occ=0.000000D+00  E= 1.344715D+00
              MO Center= -5.3D-16, -5.3D-16,  2.7D-08, r^2= 2.2D+00
   Bfn.  Coefficient  Atom+Function         Bfn.  Coefficient  Atom+Function  
  ----- ------------  ---------------      ----- ------------  ---------------
     4      5.442901  1 O  s                 34     -5.442901  2 O  s          
    13     -2.404089  1 O  pz                43     -2.404089  2 O  pz         
     2     -1.111322  1 O  s                 32      1.111322  2 O  s          
    10     -0.524028  1 O  pz                40     -0.524028  2 O  pz         
     1     -0.397386  1 O  s                 31      0.397386  2 O  s          

 Vector   19  Occ=0.000000D+00  E= 1.351305D+00
              MO Center= -8.0D-16,  7.8D-16, -5.9D-08, r^2= 1.0D+00
   Bfn.  Coefficient  Atom+Function         Bfn.  Coefficient  Atom+Function  
  ----- ------------  ---------------      ----- ------------  ---------------
    19      0.648076  1 O  d -2              49      0.648077  2 O  d -2       


                     DFT Final Beta Molecular Orbital Analysis
                     -----------------------------------------

 Vector    1  Occ=1.000000D+00  E=-1.880464D+01
              MO Center= -3.6D-18, -5.1D-18, -3.8D-04, r^2= 3.8D-01
   Bfn.  Coefficient  Atom+Function         Bfn.  Coefficient  Atom+Function  
  ----- ------------  ---------------      ----- ------------  ---------------
     1      0.675824  1 O  s                 31      0.676250  2 O  s          

 Vector    2  Occ=1.000000D+00  E=-1.880441D+01
              MO Center= -1.1D-17,  1.6D-17,  3.8D-04, r^2= 3.8D-01
   Bfn.  Coefficient  Atom+Function         Bfn.  Coefficient  Atom+Function  
  ----- ------------  ---------------      ----- ------------  ---------------
     1      0.671881  1 O  s                 31     -0.671452  2 O  s          

 Vector    3  Occ=1.000000D+00  E=-1.408564D+00
              MO Center=  2.2D-16,  4.8D-17, -3.7D-08, r^2= 4.6D-01
   Bfn.  Coefficient  Atom+Function         Bfn.  Coefficient  Atom+Function  
  ----- ------------  ---------------      ----- ------------  ---------------
     2      0.338328  1 O  s                 32      0.338328  2 O  s          
     4      0.168215  1 O  s                 34      0.168215  2 O  s          

 Vector    4  Occ=1.000000D+00  E=-8.774156D-01
              MO Center= -2.6D-17,  2.2D-16, -1.4D-07, r^2= 1.1D+00
   Bfn.  Coefficient  Atom+Function         Bfn.  Coefficient  Atom+Function  
  ----- ------------  ---------------      ----- ------------  ---------------
     2      0.388796  1 O  s                 32     -0.388796  2 O  s          
     4      0.320701  1 O  s                 34     -0.320701  2 O  s          

 Vector    5  Occ=1.000000D+00  E=-6.439402D-01
              MO Center=  5.3D-16,  2.4D-16,  1.6D-07, r^2= 1.2D+00
   Bfn.  Coefficient  Atom+Function         Bfn.  Coefficient  Atom+Function  
  ----- ------------  ---------------      ----- ------------  ---------------
    10      0.298586  1 O  pz                40     -0.298586  2 O  pz         
     7      0.261360  1 O  pz                37     -0.261360  2 O  pz         
     4      0.256314  1 O  s                 34      0.256314  2 O  s          
    13      0.175929  1 O  pz                43     -0.175929  2 O  pz         

 Vector    6  Occ=1.000000D+00  E=-6.026439D-01
              MO Center= -2.4D-15,  2.3D-16, -4.0D-08, r^2= 8.7D-01
   Bfn.  Coefficient  Atom+Function         Bfn.  Coefficient  Atom+Function  
  ----- ------------  ---------------      ----- ------------  ---------------
     8      0.294416  1 O  px                38      0.294416  2 O  px         
     5      0.251015  1 O  px                35      0.251015  2 O  px         
    11      0.217452  1 O  px                41      0.217452  2 O  px         

 Vector    7  Occ=1.000000D+00  E=-6.026439D-01
              MO Center=  3.5D-17,  2.9D-16, -4.0D-08, r^2= 8.7D-01
   Bfn.  Coefficient  Atom+Function         Bfn.  Coefficient  Atom+Function  
  ----- ------------  ---------------      ----- ------------  ---------------
     9      0.294416  1 O  py                39      0.294416  2 O  py         
     6      0.251015  1 O  py                36      0.251015  2 O  py         
    12      0.217452  1 O  py                42      0.217452  2 O  py         

 Vector    8  Occ=0.000000D+00  E= 1.937156D-02
              MO Center= -3.8D-16, -2.3D-16,  3.7D-08, r^2= 1.1D+00
   Bfn.  Coefficient  Atom+Function         Bfn.  Coefficient  Atom+Function  
  ----- ------------  ---------------      ----- ------------  ---------------
    11      0.449247  1 O  px                41     -0.449247  2 O  px         
     8      0.321363  1 O  px                38     -0.321363  2 O  px         
     5      0.285835  1 O  px                35     -0.285835  2 O  px         

 Vector    9  Occ=0.000000D+00  E= 1.937156D-02
              MO Center= -2.5D-16, -1.5D-16,  3.7D-08, r^2= 1.1D+00
   Bfn.  Coefficient  Atom+Function         Bfn.  Coefficient  Atom+Function  
  ----- ------------  ---------------      ----- ------------  ---------------
    12      0.449247  1 O  py                42     -0.449247  2 O  py         
     9      0.321363  1 O  py                39     -0.321363  2 O  py         
     6      0.285835  1 O  py                36     -0.285835  2 O  py         

 Vector   10  Occ=0.000000D+00  E= 3.571594D-01
              MO Center=  2.5D-16,  1.4D-16, -1.4D-08, r^2= 2.3D+00
   Bfn.  Coefficient  Atom+Function         Bfn.  Coefficient  Atom+Function  
  ----- ------------  ---------------      ----- ------------  ---------------
     4      2.066796  1 O  s                 34     -2.066796  2 O  s          
    13     -1.628988  1 O  pz                43     -1.628988  2 O  pz         
    10     -0.321354  1 O  pz                40     -0.321354  2 O  pz         
     2      0.237906  1 O  s                 32     -0.237906  2 O  s          
     7     -0.194620  1 O  pz                37     -0.194620  2 O  pz         

 Vector   11  Occ=0.000000D+00  E= 6.516491D-01
              MO Center=  9.2D-16,  8.2D-17, -2.0D-07, r^2= 2.1D+00
   Bfn.  Coefficient  Atom+Function         Bfn.  Coefficient  Atom+Function  
  ----- ------------  ---------------      ----- ------------  ---------------
    11      0.698148  1 O  px                41      0.698148  2 O  px         
     8     -0.525892  1 O  px                38     -0.525892  2 O  px         
     5     -0.185222  1 O  px                35     -0.185222  2 O  px         

 Vector   12  Occ=0.000000D+00  E= 6.516491D-01
              MO Center=  7.3D-18,  1.6D-15, -2.0D-07, r^2= 2.1D+00
   Bfn.  Coefficient  Atom+Function         Bfn.  Coefficient  Atom+Function  
  ----- ------------  ---------------      ----- ------------  ---------------
    12      0.698148  1 O  py                42      0.698148  2 O  py         
     9     -0.525892  1 O  py                39     -0.525892  2 O  py         
     6     -0.185222  1 O  py                36     -0.185222  2 O  py         

 Vector   13  Occ=0.000000D+00  E= 6.567496D-01
              MO Center=  3.5D-16, -3.9D-16, -1.5D-06, r^2= 2.3D+00
   Bfn.  Coefficient  Atom+Function         Bfn.  Coefficient  Atom+Function  
  ----- ------------  ---------------      ----- ------------  ---------------
     4      1.946255  1 O  s                 34     -1.946254  2 O  s          
    13     -1.671844  1 O  pz                43     -1.671846  2 O  pz         
    10      0.342657  1 O  pz                40      0.342657  2 O  pz         
     7      0.335841  1 O  pz                37      0.335841  2 O  pz         
    21      0.303599  1 O  d  0              51     -0.303599  2 O  d  0       

 Vector   14  Occ=0.000000D+00  E= 6.765300D-01
              MO Center=  2.4D-16,  6.2D-17,  1.5D-06, r^2= 2.9D+00
   Bfn.  Coefficient  Atom+Function         Bfn.  Coefficient  Atom+Function  
  ----- ------------  ---------------      ----- ------------  ---------------
    13      1.019106  1 O  pz                43     -1.019104  2 O  pz         
    10     -0.474558  1 O  pz                40      0.474558  2 O  pz         
     4      0.303174  1 O  s                 34      0.303177  2 O  s          

 Vector   15  Occ=0.000000D+00  E= 7.764983D-01
              MO Center= -3.2D-16, -5.2D-17,  2.0D-07, r^2= 2.5D+00
   Bfn.  Coefficient  Atom+Function         Bfn.  Coefficient  Atom+Function  
  ----- ------------  ---------------      ----- ------------  ---------------
    11      1.268844  1 O  px                41     -1.268843  2 O  px         
     8     -0.530908  1 O  px                38      0.530908  2 O  px         
     5     -0.203438  1 O  px                35      0.203438  2 O  px         

 Vector   16  Occ=0.000000D+00  E= 7.764983D-01
              MO Center=  1.1D-17, -1.4D-16,  2.0D-07, r^2= 2.5D+00
   Bfn.  Coefficient  Atom+Function         Bfn.  Coefficient  Atom+Function  
  ----- ------------  ---------------      ----- ------------  ---------------
    12      1.268844  1 O  py                42     -1.268843  2 O  py         
     9     -0.530908  1 O  py                39      0.530908  2 O  py         
     6     -0.203438  1 O  py                36      0.203438  2 O  py         

 Vector   17  Occ=0.000000D+00  E= 8.225113D-01
              MO Center= -1.0D-15, -1.3D-15,  2.7D-08, r^2= 1.5D+00
   Bfn.  Coefficient  Atom+Function         Bfn.  Coefficient  Atom+Function  
  ----- ------------  ---------------      ----- ------------  ---------------
     4     -0.951343  1 O  s                 34     -0.951343  2 O  s          
     2      0.942375  1 O  s                 32      0.942375  2 O  s          
     1      0.327829  1 O  s                 31      0.327829  2 O  s          
     3      0.170888  1 O  s                 33      0.170888  2 O  s          

 Vector   18  Occ=0.000000D+00  E= 1.373548D+00
              MO Center= -1.1D-15,  1.0D-15,  2.5D-08, r^2= 2.2D+00
   Bfn.  Coefficient  Atom+Function         Bfn.  Coefficient  Atom+Function  
  ----- ------------  ---------------      ----- ------------  ---------------
     4      5.467256  1 O  s                 34     -5.467256  2 O  s          
    13     -2.403605  1 O  pz                43     -2.403605  2 O  pz         
     2     -1.117206  1 O  s                 32      1.117206  2 O  s          
    10     -0.541763  1 O  pz                40     -0.541763  2 O  pz         
     1     -0.400845  1 O  s                 31      0.400845  2 O  s          

 Vector   19  Occ=0.000000D+00  E= 1.386819D+00
              MO Center= -9.2D-16,  8.5D-16, -5.0D-08, r^2= 1.0D+00
   Bfn.  Coefficient  Atom+Function         Bfn.  Coefficient  Atom+Function  
  ----- ------------  ---------------      ----- ------------  ---------------
    19      0.649672  1 O  d -2              49      0.649673  2 O  d -2       


   alpha - beta orbital overlaps 
   ----------------------------- 


   alpha      1      2      3      4      5      6      7      8      9     10
    beta      2      1      3      4      6      7      5      8      9     10
 overlap   1.000  1.000  1.000  1.000  0.999  0.999  1.000  0.996  0.996  0.997


   alpha     11     12     13     14     15     16     17     18     19     20
    beta     11     12     13     14     15     16     17     18     19     20
 overlap   0.999  0.999  0.998  0.999  0.996  0.996  0.999  1.000  1.000  1.000


   alpha     21     22     23     24     25     26     27     28     29     30
    beta     21     22     23     24     25     26     27     28     29     30
 overlap   1.000  1.000  1.000  1.000  1.000  1.000  1.000  1.000  1.000  1.000


   alpha     31     32     33     34     35     36     37     38     39     40
    beta     31     32     33     34     35     36     37     38     39     41
 overlap   1.000  1.000  1.000  1.000  1.000  1.000  1.000  1.000  1.000  0.862


   alpha     41     42     43     44     45     46     47     48     49     50
    beta     40     42     43     44     45     46     47     48     49     50
 overlap   0.862  0.990  0.990  1.000  1.000  1.000  1.000  1.000  1.000  1.000


   alpha     51     52     53     54     55     56     57     58     59     60
    beta     51     52     53     54     55     56     57     58     59     60
 overlap   1.000  1.000  1.000  1.000  1.000  1.000  1.000  1.000  1.000  1.000


     --------------------------
     Expectation value of S2:  
     --------------------------
      <S2> =      2.0058 (Exact =     2.0000)


 center of mass
 --------------
 x =   0.00000000 y =   0.00000000 z =   0.00000000

 moments of inertia (a.u.)
 ------------------
          41.238469565702           0.000000000000           0.000000000000
           0.000000000000          41.238469565702           0.000000000000
           0.000000000000           0.000000000000           0.000000000000

     Multipole analysis of the density
     ---------------------------------

     L   x y z        total         alpha         beta         nuclear
     -   - - -        -----         -----         ----         -------
     0   0 0 0      0.000000     -9.000000     -7.000000     16.000000

     1   1 0 0      0.000000      0.000000      0.000000      0.000000
     1   0 1 0      0.000000      0.000000      0.000000      0.000000
     1   0 0 1      0.000000      0.000000      0.000000      0.000000

     2   2 0 0     -7.611426     -4.435503     -3.175924      0.000000
     2   1 1 0      0.000000      0.000000      0.000000      0.000000
     2   1 0 1      0.000000      0.000000      0.000000      0.000000
     2   0 2 0     -7.611426     -4.435503     -3.175924      0.000000
     2   0 1 1      0.000000      0.000000      0.000000      0.000000
     2   0 0 2     -8.092029    -16.325154    -12.392671     20.625796

 Line search: 
     step= 1.00 grad=-3.1D-07 hess= 1.5D-07 energy=   -147.994423 mode=accept  
 new step= 1.00                   predicted energy=   -147.994423

          --------
          Step   1
          --------


                         Geometry "geometry" -> "geometry"
                         ---------------------------------

 Output coordinates in angstroms (scale by  1.889725989 to convert to a.u.)

  No.       Tag          Charge          X              Y              Z
 ---- ---------------- ---------- -------------- -------------- --------------
    1 O                    8.0000     0.00000000     0.00000000     0.60082298
    2 O                    8.0000     0.00000000     0.00000000    -0.60082298

      Atomic Mass 
      ----------- 

      O                 15.994910


 Effective nuclear repulsion energy (a.u.)      28.1841282753

            Nuclear Dipole moment (a.u.) 
            ----------------------------
        X                 Y               Z
 ---------------- ---------------- ----------------
     0.0000000000     0.0000000000     0.0000000000


                                 NWChem DFT Module
                                 -----------------



  The DFT is already converged 

         Total DFT energy =   -147.994422628509

  int_init: cando_txs set to always be  F
  intd_init: cando_txs set to always be  F


                            NWChem DFT Gradient Module
                            --------------------------



  charge          =   0.00
  wavefunction    = open shell

  int_init: cando_txs set to always be  F
  intd_init: cando_txs set to always be  F


                         DFT ENERGY GRADIENTS

    atom               coordinates                        gradient
                 x          y          z           x          y          z
   1 O       0.000000   0.000000   1.135391    0.000000   0.000000   0.000000
   2 O       0.000000   0.000000  -1.135391    0.000000   0.000000   0.000000

                 ----------------------------------------
                 |  Time  |  1-e(secs)   |  2-e(secs)   |
                 ----------------------------------------
                 |  CPU   |       0.00   |       4.43   |
                 ----------------------------------------
                 |  WALL  |       0.00   |       6.10   |
                 ----------------------------------------

  Step       Energy      Delta E   Gmax     Grms     Xrms     Xmax   Walltime
  ---- ---------------- -------- -------- -------- -------- -------- --------
@    1    -147.99442263 -1.6D-07  0.00000  0.00000  0.00017  0.00029     30.1
                                     ok       ok       ok       ok  



                                Z-matrix (autoz)
                                -------- 

 Units are Angstrom for bonds and degrees for angles

      Type          Name      I     J     K     L     M      Value     Gradient
      ----------- --------  ----- ----- ----- ----- ----- ---------- ----------
    1 Stretch                  1     2                       1.20165    0.00000


      ----------------------
      Optimization converged
      ----------------------


  Step       Energy      Delta E   Gmax     Grms     Xrms     Xmax   Walltime
  ---- ---------------- -------- -------- -------- -------- -------- --------
@    1    -147.99442263 -1.6D-07  0.00000  0.00000  0.00017  0.00029     30.1
                                     ok       ok       ok       ok  



                                Z-matrix (autoz)
                                -------- 

 Units are Angstrom for bonds and degrees for angles

      Type          Name      I     J     K     L     M      Value     Gradient
      ----------- --------  ----- ----- ----- ----- ----- ---------- ----------
    1 Stretch                  1     2                       1.20165    0.00000



                         Geometry "geometry" -> "geometry"
                         ---------------------------------

 Output coordinates in angstroms (scale by  1.889725989 to convert to a.u.)

  No.       Tag          Charge          X              Y              Z
 ---- ---------------- ---------- -------------- -------------- --------------
    1 O                    8.0000     0.00000000     0.00000000     0.60082298
    2 O                    8.0000     0.00000000     0.00000000    -0.60082298

      Atomic Mass 
      ----------- 

      O                 15.994910


 Effective nuclear repulsion energy (a.u.)      28.1841282753

            Nuclear Dipole moment (a.u.) 
            ----------------------------
        X                 Y               Z
 ---------------- ---------------- ----------------
     0.0000000000     0.0000000000     0.0000000000


                Final and change from initial internal coordinates
                --------------------------------------------------



                                Z-matrix (autoz)
                                -------- 

 Units are Angstrom for bonds and degrees for angles

      Type          Name      I     J     K     L     M      Value       Change
      ----------- --------  ----- ----- ----- ----- ----- ---------- ----------
    1 Stretch                  1     2                       1.20165    0.00031

 ==============================================================================
                                internuclear distances
 ------------------------------------------------------------------------------
       center one      |      center two      | atomic units |  angstroms
 ------------------------------------------------------------------------------
    2 O                |   1 O                |     2.27078  |     1.20165
 ------------------------------------------------------------------------------
                         number of included internuclear distances:          1
 ==============================================================================




 Task  times  cpu:       17.1s     wall:       21.3s


                                NWChem Input Module
                                -------------------



                                 NWChem DFT Module
                                 -----------------


  int_init: cando_txs set to always be  F
  Caching 1-el integrals 

            General Information
            -------------------
          SCF calculation type: DFT
          Wavefunction type:  spin polarized.
          No. of atoms     :     2
          No. of electrons :    16
           Alpha electrons :     9
            Beta electrons :     7
          Charge           :     0
          Spin multiplicity:     3
          Use of symmetry is: off; symmetry adaption is: off
          Maximum number of iterations:  30
          This is a Direct SCF calculation.
          AO basis - number of functions:    60
                     number of shells:    20
          A Charge density fitting basis will be used.
          CD basis - number of functions:    88
                     number of shells:    28
          Convergence on energy requested: 1.00D-06
          Convergence on density requested: 1.00D-05
          Convergence on gradient requested: 5.00D-04

              XC Information
              --------------
                     Hartree-Fock (Exact) Exchange  1.000          
                   LC-BNL 2007 Exchange Functional  0.900 local    
              Lee-Yang-Parr Correlation Functional  1.000          

           Range-Separation Parameters        
           ---------------------------
           Alpha           :  0.00
           Beta            :  1.00
           Gamma           :  0.50
           Short-Range HF  :     F

             Grid Information
             ----------------
          Grid used for XC integration:  medium    
          Radial quadrature: Mura-Knowles        
          Angular quadrature: Lebedev. 
          Tag              B.-S. Rad. Rad. Pts. Rad. Cut. Ang. Pts.
          ---              ---------- --------- --------- ---------
          O                   0.60       49           5.0       434
          Grid pruning is: on 
          Number of quadrature shells:    98
          Spatial weights used:  Erf1

          Convergence Information
          -----------------------
          Convergence aids based upon iterative change in 
          total energy or number of iterations. 
          Levelshifting, if invoked, occurs when the 
          HOMO/LUMO gap drops below (HL_TOL): 1.00D-02
[...]
     8      0.321363  1 O  px                38     -0.321363  2 O  px         
     5      0.285835  1 O  px                35     -0.285835  2 O  px         

 Vector    9  Occ=0.000000D+00  E= 1.937157D-02
              MO Center= -3.7D-16, -7.8D-17,  1.4D-09, r^2= 1.1D+00
   Bfn.  Coefficient  Atom+Function         Bfn.  Coefficient  Atom+Function  
  ----- ------------  ---------------      ----- ------------  ---------------
    12      0.449247  1 O  py                42     -0.449247  2 O  py         
     9      0.321363  1 O  py                39     -0.321363  2 O  py         
     6      0.285835  1 O  py                36     -0.285835  2 O  py         

 Vector   10  Occ=0.000000D+00  E= 3.571594D-01
              MO Center=  1.3D-16,  9.8D-17, -3.9D-10, r^2= 2.3D+00
   Bfn.  Coefficient  Atom+Function         Bfn.  Coefficient  Atom+Function  
  ----- ------------  ---------------      ----- ------------  ---------------
     4      2.066796  1 O  s                 34     -2.066796  2 O  s          
    13     -1.628988  1 O  pz                43     -1.628988  2 O  pz         
    10     -0.321354  1 O  pz                40     -0.321354  2 O  pz         
     2      0.237906  1 O  s                 32     -0.237906  2 O  s          
     7     -0.194620  1 O  pz                37     -0.194620  2 O  pz         

 Vector   11  Occ=0.000000D+00  E= 6.516491D-01
              MO Center=  9.6D-16, -8.1D-17, -7.3D-09, r^2= 2.1D+00
   Bfn.  Coefficient  Atom+Function         Bfn.  Coefficient  Atom+Function  
  ----- ------------  ---------------      ----- ------------  ---------------
    11      0.698148  1 O  px                41      0.698148  2 O  px         
     8     -0.525892  1 O  px                38     -0.525892  2 O  px         
     5     -0.185222  1 O  px                35     -0.185222  2 O  px         

 Vector   12  Occ=0.000000D+00  E= 6.516491D-01
              MO Center=  1.1D-16,  9.9D-16, -7.6D-09, r^2= 2.1D+00
   Bfn.  Coefficient  Atom+Function         Bfn.  Coefficient  Atom+Function  
  ----- ------------  ---------------      ----- ------------  ---------------
    12      0.698148  1 O  py                42      0.698148  2 O  py         
     9     -0.525892  1 O  py                39     -0.525892  2 O  py         
     6     -0.185222  1 O  py                36     -0.185222  2 O  py         

 Vector   13  Occ=0.000000D+00  E= 6.567496D-01
              MO Center=  3.2D-15,  1.9D-15, -5.7D-08, r^2= 2.3D+00
   Bfn.  Coefficient  Atom+Function         Bfn.  Coefficient  Atom+Function  
  ----- ------------  ---------------      ----- ------------  ---------------
     4      1.946254  1 O  s                 34     -1.946254  2 O  s          
    13     -1.671845  1 O  pz                43     -1.671845  2 O  pz         
    10      0.342657  1 O  pz                40      0.342657  2 O  pz         
     7      0.335841  1 O  pz                37      0.335841  2 O  pz         
    21      0.303599  1 O  d  0              51     -0.303599  2 O  d  0       

 Vector   14  Occ=0.000000D+00  E= 6.765300D-01
              MO Center=  3.6D-17,  1.7D-17,  5.6D-08, r^2= 2.9D+00
   Bfn.  Coefficient  Atom+Function         Bfn.  Coefficient  Atom+Function  
  ----- ------------  ---------------      ----- ------------  ---------------
    13      1.019105  1 O  pz                43     -1.019105  2 O  pz         
    10     -0.474558  1 O  pz                40      0.474558  2 O  pz         
     4      0.303175  1 O  s                 34      0.303175  2 O  s          

 Vector   15  Occ=0.000000D+00  E= 7.764983D-01
              MO Center= -3.2D-15, -1.5D-16,  7.1D-09, r^2= 2.5D+00
   Bfn.  Coefficient  Atom+Function         Bfn.  Coefficient  Atom+Function  
  ----- ------------  ---------------      ----- ------------  ---------------
    11      1.268844  1 O  px                41     -1.268844  2 O  px         
     8     -0.530908  1 O  px                38      0.530908  2 O  px         
     5     -0.203438  1 O  px                35      0.203438  2 O  px         

 Vector   16  Occ=0.000000D+00  E= 7.764983D-01
              MO Center=  1.0D-16, -2.1D-15,  7.4D-09, r^2= 2.5D+00
   Bfn.  Coefficient  Atom+Function         Bfn.  Coefficient  Atom+Function  
  ----- ------------  ---------------      ----- ------------  ---------------
    12      1.268844  1 O  py                42     -1.268844  2 O  py         
     9     -0.530908  1 O  py                39      0.530908  2 O  py         
     6     -0.203438  1 O  py                36      0.203438  2 O  py         

 Vector   17  Occ=0.000000D+00  E= 8.225113D-01
              MO Center= -8.4D-16, -8.8D-16,  1.1D-09, r^2= 1.5D+00
   Bfn.  Coefficient  Atom+Function         Bfn.  Coefficient  Atom+Function  
  ----- ------------  ---------------      ----- ------------  ---------------
     4     -0.951343  1 O  s                 34     -0.951343  2 O  s          
     2      0.942375  1 O  s                 32      0.942375  2 O  s          
     1      0.327829  1 O  s                 31      0.327829  2 O  s          
     3      0.170888  1 O  s                 33      0.170888  2 O  s          

 Vector   18  Occ=0.000000D+00  E= 1.373548D+00
              MO Center= -7.3D-16, -4.2D-16,  9.3D-10, r^2= 2.2D+00
   Bfn.  Coefficient  Atom+Function         Bfn.  Coefficient  Atom+Function  
  ----- ------------  ---------------      ----- ------------  ---------------
     4      5.467256  1 O  s                 34     -5.467256  2 O  s          
    13     -2.403605  1 O  pz                43     -2.403605  2 O  pz         
     2     -1.117206  1 O  s                 32      1.117206  2 O  s          
    10     -0.541763  1 O  pz                40     -0.541763  2 O  pz         
     1     -0.400845  1 O  s                 31      0.400845  2 O  s          

 Vector   19  Occ=0.000000D+00  E= 1.386819D+00
              MO Center=  1.1D-16, -4.1D-16, -1.9D-09, r^2= 1.0D+00
   Bfn.  Coefficient  Atom+Function         Bfn.  Coefficient  Atom+Function  
  ----- ------------  ---------------      ----- ------------  ---------------
    19      0.649673  1 O  d -2              49      0.649673  2 O  d -2       


   alpha - beta orbital overlaps 
   ----------------------------- 


   alpha      1      2      3      4      5      6      7      8      9     10
    beta      2      1      3      4      6      7      5      8      9     10
 overlap   1.000  1.000  1.000  1.000  0.999  0.999  1.000  0.996  0.996  0.997


   alpha     11     12     13     14     15     16     17     18     19     20
    beta     11     12     13     14     15     16     17     18     19     20
 overlap   0.999  0.999  0.998  0.999  0.996  0.996  0.999  1.000  1.000  1.000


   alpha     21     22     23     24     25     26     27     28     29     30
    beta     21     22     23     24     25     26     27     28     29     30
 overlap   1.000  1.000  1.000  1.000  1.000  1.000  1.000  1.000  1.000  1.000


   alpha     31     32     33     34     35     36     37     38     39     40
    beta     31     32     33     34     35     36     37     38     39     40
 overlap   1.000  1.000  1.000  1.000  1.000  1.000  1.000  1.000  1.000  0.970


   alpha     41     42     43     44     45     46     47     48     49     50
    beta     41     43     42     44     45     46     47     48     49     50
 overlap   0.970  0.911  0.911  1.000  1.000  1.000  1.000  1.000  1.000  1.000


   alpha     51     52     53     54     55     56     57     58     59     60
    beta     51     52     53     54     55     56     57     58     59     60
 overlap   1.000  1.000  1.000  1.000  1.000  1.000  1.000  1.000  1.000  1.000


     --------------------------
     Expectation value of S2:  
     --------------------------
      <S2> =      2.0058 (Exact =     2.0000)


 center of mass
 --------------
 x =   0.00000000 y =   0.00000000 z =   0.00000000

 moments of inertia (a.u.)
 ------------------
          41.238469565702           0.000000000000           0.000000000000
           0.000000000000          41.238469565702           0.000000000000
           0.000000000000           0.000000000000           0.000000000000

     Multipole analysis of the density
     ---------------------------------

     L   x y z        total         alpha         beta         nuclear
     -   - - -        -----         -----         ----         -------
     0   0 0 0      0.000000     -9.000000     -7.000000     16.000000

     1   1 0 0      0.000000      0.000000      0.000000      0.000000
     1   0 1 0      0.000000      0.000000      0.000000      0.000000
     1   0 0 1      0.000000      0.000000      0.000000      0.000000

     2   2 0 0     -7.611426     -4.435503     -3.175924      0.000000
     2   1 1 0      0.000000      0.000000      0.000000      0.000000
     2   1 0 1      0.000000      0.000000      0.000000      0.000000
     2   0 2 0     -7.611426     -4.435503     -3.175924      0.000000
     2   0 1 1      0.000000      0.000000      0.000000      0.000000
     2   0 0 2     -8.092029    -16.325154    -12.392671     20.625796

  int_init: cando_txs set to always be  F
                                NWChem TDDFT Module
                                -------------------


            General Information
            -------------------
           No. of orbitals :   120
            Alpha orbitals :    60
             Beta orbitals :    60
        Alpha frozen cores :     0
         Beta frozen cores :     0
     Alpha frozen virtuals :     0
      Beta frozen virtuals :     0
         Spin multiplicity :     3
    Number of AO functions :    60
        Use of symmetry is : off
      Symmetry adaption is : off
         Schwarz screening : 0.10D-07

              XC Information
              --------------
              Hartree-Fock (Exact) Exchange   1.00          
            LC-BNL 2007 Exchange Functional   0.90 local    
       Lee-Yang-Parr Correlation Functional   1.00          

             TDDFT Information
             -----------------
          Calculation type : TDDFT             
         Wavefunction type : Unrestricted
          No. of electrons :    16
           Alpha electrons :     9
            Beta electrons :     7
              No. of roots :     5
          Max subspacesize :   830
            Max iterations :   100
               Target root :     1
           Target symmetry : none
      Symmetry restriction : off
                 Algorithm : Optimal
        Davidson threshold : 0.10D-03

            Memory Information
            ------------------
          Available GA space size is         104850400 doubles
          Available MA space size is          26213169 doubles
          Length of a trial vector is          459     371
          Algorithm : Incore multiple tensor contraction
          Estimated peak GA usage is           3368700 doubles
          Estimated peak MA usage is             18000 doubles

    5 smallest eigenvalue differences (eV) 
--------------------------------------------------------
  No. Spin  Occ  Vir  Irrep   E(Occ)    E(Vir)   E(Diff)
--------------------------------------------------------
    1    2    7    8 a        -0.603     0.019    16.926
    2    2    7    9 a        -0.603     0.019    16.926
    3    2    6    8 a        -0.603     0.019    16.926
    4    2    6    9 a        -0.603     0.019    16.926
    5    2    5    8 a        -0.644     0.019    18.050
--------------------------------------------------------

  Entering Davidson iterations
  Unrestricted

  Iter   NTrls   NConv    DeltaV     DeltaE      Time   
  ----  ------  ------  ---------  ---------  --------- 
    1      5       0     0.75E+00   0.10+100        5.0
    2     15       0     0.13E+00   0.13E+00        8.1
    3     25       1     0.23E-01   0.40E-02        8.7
    4     33       1     0.54E-02   0.16E-03        7.4
    5     41       3     0.22E-02   0.10E-04        7.5
    6     45       4     0.51E-03   0.92E-06        4.6
    7     47       5     0.63E-04   0.34E-07        3.2
  ----  ------  ------  ---------  ---------  --------- 
  Convergence criterion met

  Ground state a        -147.994422628508 a.u.
  <S2> =   2.0058

  ----------------------------------------------------------------------------
  Root   1         a              0.232147106 a.u.                6.3170 eV 
  <S2> =   2.0046
  ----------------------------------------------------------------------------
     Transition Moments    X  0.00000   Y  0.00000   Z  0.00000
     Transition Moments   XX  0.00000  XY  0.00000  XZ  0.00000
     Transition Moments   YY  0.00000  YZ  0.00000  ZZ  0.00000
     Dipole Oscillator Strength                         0.00000

     Occ.    6 beta  a   ---  Virt.    9 beta  a    0.70985 X
     Occ.    6 beta  a   ---  Virt.    9 beta  a   -0.07422 Y
     Occ.    7 beta  a   ---  Virt.    8 beta  a   -0.70985 X
     Occ.    7 beta  a   ---  Virt.    8 beta  a    0.07422 Y
  ----------------------------------------------------------------------------
  Root   2         a              0.235571511 a.u.                6.4102 eV 
  <S2> =   2.0038
  ----------------------------------------------------------------------------
     Transition Moments    X  0.00000   Y  0.00000   Z  0.00000
     Transition Moments   XX  0.00000  XY  0.00000  XZ  0.00000
     Transition Moments   YY  0.00000  YZ  0.00000  ZZ  0.00000
     Dipole Oscillator Strength                         0.00000

     Occ.    6 beta  a   ---  Virt.    8 beta  a    0.70877 X
     Occ.    6 beta  a   ---  Virt.    8 beta  a    0.06682 Y
     Occ.    7 beta  a   ---  Virt.    9 beta  a   -0.70877 X
     Occ.    7 beta  a   ---  Virt.    9 beta  a   -0.06682 Y
  ----------------------------------------------------------------------------
  Root   3         a              0.235571520 a.u.                6.4102 eV 
  <S2> =   2.0038
  ----------------------------------------------------------------------------
     Transition Moments    X  0.00000   Y  0.00000   Z  0.00000
     Transition Moments   XX  0.00000  XY  0.00000  XZ  0.00000
     Transition Moments   YY  0.00000  YZ  0.00000  ZZ  0.00000
     Dipole Oscillator Strength                         0.00000

     Occ.    6 beta  a   ---  Virt.    9 beta  a    0.70877 X
     Occ.    6 beta  a   ---  Virt.    9 beta  a    0.06682 Y
     Occ.    7 beta  a   ---  Virt.    8 beta  a    0.70877 X
     Occ.    7 beta  a   ---  Virt.    8 beta  a    0.06682 Y
  ----------------------------------------------------------------------------
  Root   4         a              0.292974641 a.u.                7.9722 eV 
  <S2> =   2.0052
  ----------------------------------------------------------------------------
     Transition Moments    X  0.00000   Y  0.00000   Z  0.00000
     Transition Moments   XX  0.00000  XY  0.00000  XZ  0.70560
     Transition Moments   YY  0.00000  YZ -0.00001  ZZ  0.00000
     Dipole Oscillator Strength                         0.00000

     Occ.    5 beta  a   ---  Virt.    8 beta  a   -0.99817 X
     Occ.    5 beta  a   ---  Virt.   15 beta  a    0.05473 X
  ----------------------------------------------------------------------------
  Root   5         a              0.342499874 a.u.                9.3199 eV 
  <S2> =   2.0060
  ----------------------------------------------------------------------------
     Transition Moments    X  0.00000   Y  0.00000   Z -0.91824
     Transition Moments   XX  0.00000  XY  0.00000  XZ  0.00000
     Transition Moments   YY  0.00000  YZ  0.00000  ZZ  0.00000
     Dipole Oscillator Strength                         0.19252

     Occ.    3 alpha a   ---  Virt.   10 alpha a   -0.05327 X
     Occ.    7 alpha a   ---  Virt.   10 alpha a    0.15596 X
     Occ.    7 alpha a   ---  Virt.   10 alpha a    0.05008 Y
     Occ.    7 alpha a   ---  Virt.   13 alpha a   -0.09689 X
     Occ.    8 alpha a   ---  Virt.   11 alpha a    0.10131 X
     Occ.    9 alpha a   ---  Virt.   12 alpha a    0.10131 X
     Occ.    5 beta  a   ---  Virt.   10 beta  a    0.11745 X
     Occ.    5 beta  a   ---  Virt.   13 beta  a   -0.07257 X
     Occ.    6 beta  a   ---  Virt.    8 beta  a    0.68386 X
     Occ.    6 beta  a   ---  Virt.    8 beta  a   -0.06434 Y
     Occ.    7 beta  a   ---  Virt.    9 beta  a    0.68386 X
     Occ.    7 beta  a   ---  Virt.    9 beta  a   -0.06434 Y

              Target root =      1
          Target symmetry = none
      Ground state energy =   -147.994422628508
        Excitation energy =      0.232147105876
     Excited state energy =   -147.762275522632


 Task  times  cpu:       52.0s     wall:       68.7s


                                NWChem Input Module
                                -------------------


 Summary of allocated global arrays
-----------------------------------
  No active global arrays



                         GA Statistics for process    0
                         ------------------------------

       create   destroy   get      put      acc     scatter   gather  read&inc
calls: 2249     2257     2.22e+05 8.70e+04 4.11e+04  470        0     4193     
number of processes/call 1.52e+00 2.22e+00 1.29e+00 2.00e+00 0.00e+00
bytes total:             7.66e+08 7.18e+07 3.21e+08 1.69e+06 0.00e+00 3.35e+04
bytes remote:            1.32e+08 1.81e+07 6.77e+07 -1.69e+06 0.00e+00 0.00e+00
Max memory consumed for GA by this process: 7817608 bytes

MA_summarize_allocated_blocks: starting scan ...
MA_summarize_allocated_blocks: scan completed: 0 heap blocks, 0 stack blocks
MA usage statistics:

	allocation statistics:
					      heap	     stack
					      ----	     -----
	current number of blocks	         0	         0
	maximum number of blocks	        26	        50
	current total bytes		         0	         0
	maximum total bytes		    499440	  22513288
	maximum total K-bytes		       500	     22514
	maximum total M-bytes		         1	        23


                                     CITATION
                                     --------
                Please cite the following reference when publishing
                           results obtained with NWChem:

                 M. Valiev, E.J. Bylaska, N. Govind, K. Kowalski,
              T.P. Straatsma, H.J.J. van Dam, D. Wang, J. Nieplocha,
                        E. Apra, T.L. Windus, W.A. de Jong
                 "NWChem: a comprehensive and scalable open-source
                  solution for large scale molecular simulations"
                      Comput. Phys. Commun. 181, 1477 (2010)
                           doi:10.1016/j.cpc.2010.04.018

                              AUTHORS & CONTRIBUTORS
                              ----------------------
          E. Apra, E. J. Bylaska, W. A. de Jong, N. Govind, K. Kowalski,
       T. P. Straatsma, M. Valiev, H. J. J. van Dam, D. Wang, T. L. Windus,
        J. Hammond, J. Autschbach, K. Bhaskaran-Nair, J. Brabec, K. Lopata,
     F. Aquino, S. Hirata, M. T. Hackler, J. Mullin, P. Nichols, R. Peverati,
    J. Pittner, Y. Zhao, P.-D. Fan, R. J. Harrison, M. Dupuis, D. Silverstein,
    D. M. A. Smith, J. Nieplocha, V. Tipparaju, M. Krishnan, B. E. Van Kuiken,
        A. Vazquez-Mayagoitia, L. Jensen, M. Swart, Q. Wu, T. Van Voorhis,
     A. A. Auer, M. Nooijen, L. D. Crosby, E. Brown, G. Cisneros, G. I. Fann,
     H. Fruchtl, J. Garza, K. Hirao, R. Kendall, J. A. Nichols, K. Tsemekhman,
      K. Wolinski, J. Anchell, D. Bernholdt, P. Borowski, T. Clark, D. Clerc,
      H. Dachsel, M. Deegan, K. Dyall, D. Elwood, E. Glendening, M. Gutowski,
      A. Hess, J. Jaffe, B. Johnson, J. Ju, R. Kobayashi, R. Kutteh, Z. Lin,
   R. Littlefield, X. Long, B. Meng, T. Nakajima, S. Niu, L. Pollack, M. Rosing,
   K. Glaesemann, G. Sandrone, M. Stave, H. Taylor, G. Thomas, J. H. van Lenthe,
                                A. Wong, Z. Zhang.

 Total times  cpu:       76.8s     wall:       98.8s
