All connections between all procs tested: SUCCESS
 argument  1 = cosmo_h3co_gp.nw



============================== echo of input deck ==============================
echo

start h3cona_dat

geometry
    o      0.00000000     0.00000000     0.27851507
    c      0.00000000     0.00000000     1.63192657
    h      0.26167571    -0.97658705     2.06772417
    h     -0.97658705     0.26167571     2.06772417
    h      0.71491134     0.71491134     2.06772417
end
charge -1

basis
  * library 6-31g*
end

cosmo
end

dft
  xc b3lyp
end

driver
end

task dft energy
cosmo
  do_gasphase off
end
task dft optimize
task dft energy
cosmo
  do_gasphase on
end
task dft optimize
================================================================================


                                         
                                         


              Northwest Computational Chemistry Package (NWChem) 6.3
              ------------------------------------------------------


                    Environmental Molecular Sciences Laboratory
                       Pacific Northwest National Laboratory
                                Richland, WA 99352

                              Copyright (c) 1994-2012
                       Pacific Northwest National Laboratory
                            Battelle Memorial Institute

             NWChem is an open-source computational chemistry package
                        distributed under the terms of the
                      Educational Community License (ECL) 2.0
             A copy of the license is included with this distribution
                              in the LICENSE.TXT file

                                  ACKNOWLEDGMENT
                                  --------------

            This software and its documentation were developed at the
            EMSL at Pacific Northwest National Laboratory, a multiprogram
            national laboratory, operated for the U.S. Department of Energy
            by Battelle under Contract Number DE-AC05-76RL01830. Support
            for this work was provided by the Department of Energy Office
            of Biological and Environmental Research, Office of Basic
            Energy Sciences, and the Office of Advanced Scientific Computing.


           Job information
           ---------------

    hostname        = arcen
    program         = /home/d3y133/nwchem-releases/nwchem-6.3/QA/../bin/LINUX64/nwchem
    date            = Tue Apr  2 16:07:51 2013

    compiled        = Tue_Apr_02_15:48:56_2013
    source          = /home/d3y133/nwchem-releases/nwchem-6.3
    nwchem branch   = 6.3
    nwchem revision = 23949
    ga revision     = 10306
    input           = cosmo_h3co_gp.nw
    prefix          = h3cona_dat.
    data base       = /home/d3y133/nwchem-releases/nwchem-6.3/QA/scratchdir/h3cona_dat.db
    status          = startup
    nproc           =        4
    time left       =     -1s



           Memory information
           ------------------

    heap     =   13107201 doubles =    100.0 Mbytes
    stack    =   13107201 doubles =    100.0 Mbytes
    global   =   26214400 doubles =    200.0 Mbytes (distinct from heap & stack)
    total    =   52428802 doubles =    400.0 Mbytes
    verify   = yes
    hardfail = no 


           Directory information
           ---------------------

  0 permanent = /home/d3y133/nwchem-releases/nwchem-6.3/QA/scratchdir
  0 scratch   = /home/d3y133/nwchem-releases/nwchem-6.3/QA/scratchdir




                                NWChem Input Module
                                -------------------



 Scaling coordinates for geometry "geometry" by  1.889725989
 (inverse scale =  0.529177249)

 C3V symmetry detected

          ------
          auto-z
          ------
  Looking for out-of-plane bends


                             Geometry "geometry" -> ""
                             -------------------------

 Output coordinates in angstroms (scale by  1.889725989 to convert to a.u.)

  No.       Tag          Charge          X              Y              Z
 ---- ---------------- ---------- -------------- -------------- --------------
    1 o                    8.0000     0.00000000     0.00000000     0.79341743
    2 c                    6.0000     0.00000000     0.00000000    -0.55999407
    3 h                    1.0000     0.71491134     0.71491134    -0.99579167
    4 h                    1.0000    -0.97658705     0.26167571    -0.99579167
    5 h                    1.0000     0.26167571    -0.97658705    -0.99579167

      Atomic Mass 
      ----------- 

      o                 15.994910
      c                 12.000000
      h                  1.007825


 Effective nuclear repulsion energy (a.u.)      34.5058725513

            Nuclear Dipole moment (a.u.) 
            ----------------------------
        X                 Y               Z
 ---------------- ---------------- ----------------
     0.0000000000     0.0000000000     0.0000000000

      Symmetry information
      --------------------

 Group name             C3v       
 Group number             17
 Group order               6
 No. of unique centers     3

      Symmetry unique atoms

     1    2    3



                                Z-matrix (autoz)
                                -------- 

 Units are Angstrom for bonds and degrees for angles

      Type          Name      I     J     K     L     M      Value
      ----------- --------  ----- ----- ----- ----- ----- ----------
    1 Stretch                  1     2                       1.35341
    2 Stretch                  2     3                       1.10096
    3 Stretch                  2     4                       1.10096
    4 Stretch                  2     5                       1.10096
    5 Bend                     1     2     3               113.31798
    6 Bend                     1     2     4               113.31798
    7 Bend                     1     2     5               113.31798
    8 Bend                     3     2     4               105.36538
    9 Bend                     3     2     5               105.36538
   10 Bend                     4     2     5               105.36538


            XYZ format geometry
            -------------------
     5
 geometry
 o                     0.00000000     0.00000000     0.79341743
 c                     0.00000000     0.00000000    -0.55999407
 h                     0.71491134     0.71491134    -0.99579167
 h                    -0.97658705     0.26167571    -0.99579167
 h                     0.26167571    -0.97658705    -0.99579167

 ==============================================================================
                                internuclear distances
 ------------------------------------------------------------------------------
       center one      |      center two      | atomic units |  angstroms
 ------------------------------------------------------------------------------
    2 c                |   1 o                |     2.55758  |     1.35341
    3 h                |   2 c                |     2.08052  |     1.10096
    4 h                |   2 c                |     2.08052  |     1.10096
    5 h                |   2 c                |     2.08052  |     1.10096
 ------------------------------------------------------------------------------
                         number of included internuclear distances:          4
 ==============================================================================



 ==============================================================================
                                 internuclear angles
 ------------------------------------------------------------------------------
        center 1       |       center 2       |       center 3       |  degrees
 ------------------------------------------------------------------------------
    1 o                |   2 c                |   3 h                |   113.32
    1 o                |   2 c                |   4 h                |   113.32
    1 o                |   2 c                |   5 h                |   113.32
    3 h                |   2 c                |   4 h                |   105.37
    3 h                |   2 c                |   5 h                |   105.37
    4 h                |   2 c                |   5 h                |   105.37
 ------------------------------------------------------------------------------
                            number of included internuclear angles:          6
 ==============================================================================



  library name resolved from: environment
  library file name is: </home/d3y133/nwchem-releases/nwchem-6.3/QA/../src/basis/libraries/>
  


 Summary of "ao basis" -> "" (cartesian)
 ------------------------------------------------------------------------------
       Tag                 Description            Shells   Functions and Types
 ---------------- ------------------------------  ------  ---------------------
 *                           6-31g*                   on all atoms 



                                 NWChem DFT Module
                                 -----------------


                      Basis "ao basis" -> "ao basis" (cartesian)
                      -----
  o (Oxygen)
  ----------
            Exponent  Coefficients 
       -------------- ---------------------------------------------------------
  1 S  5.48467170E+03  0.001831
  1 S  8.25234950E+02  0.013950
  1 S  1.88046960E+02  0.068445
  1 S  5.29645000E+01  0.232714
  1 S  1.68975700E+01  0.470193
  1 S  5.79963530E+00  0.358521

  2 S  1.55396160E+01 -0.110778
  2 S  3.59993360E+00 -0.148026
  2 S  1.01376180E+00  1.130767

  3 P  1.55396160E+01  0.070874
  3 P  3.59993360E+00  0.339753
  3 P  1.01376180E+00  0.727159

  4 S  2.70005800E-01  1.000000

  5 P  2.70005800E-01  1.000000

  6 D  8.00000000E-01  1.000000

  c (Carbon)
  ----------
            Exponent  Coefficients 
       -------------- ---------------------------------------------------------
  1 S  3.04752490E+03  0.001835
  1 S  4.57369510E+02  0.014037
  1 S  1.03948690E+02  0.068843
  1 S  2.92101550E+01  0.232184
  1 S  9.28666300E+00  0.467941
  1 S  3.16392700E+00  0.362312

  2 S  7.86827240E+00 -0.119332
  2 S  1.88128850E+00 -0.160854
  2 S  5.44249300E-01  1.143456

  3 P  7.86827240E+00  0.068999
  3 P  1.88128850E+00  0.316424
  3 P  5.44249300E-01  0.744308

  4 S  1.68714400E-01  1.000000

  5 P  1.68714400E-01  1.000000

  6 D  8.00000000E-01  1.000000

  h (Hydrogen)
  ------------
            Exponent  Coefficients 
       -------------- ---------------------------------------------------------
  1 S  1.87311370E+01  0.033495
  1 S  2.82539370E+00  0.234727
  1 S  6.40121700E-01  0.813757

  2 S  1.61277800E-01  1.000000



 Summary of "ao basis" -> "ao basis" (cartesian)
 ------------------------------------------------------------------------------
       Tag                 Description            Shells   Functions and Types
 ---------------- ------------------------------  ------  ---------------------
 o                           6-31g*                  6       15   3s2p1d
 c                           6-31g*                  6       15   3s2p1d
 h                           6-31g*                  2        2   2s



          ---------------
          -cosmo- solvent
          ---------------
 dielectric constant -eps-  =  78.40
 charge screening approach  =   1
 screen = (eps-1)/(eps    ) =   0.98724
 -lineq- algorithm          =   1
 -bem- low  level           =   2
 -bem- high level           =   3
 -bem- from -octahedral-
 solvent radius (ang.)      =   0.500
 atomic radii = 
 --------------
    1  8.000  1.720
    2  6.000  2.000
    3  1.000  1.300
    4  1.000  1.300
    5  1.000  1.300

 solvent accessible surface
 --------------------------

 ---------- ATOMIC COORDINATES (A.U.) ------------ VDWR(ANG.) --
     1    0.00000000    0.00000000    1.49934154     1.720
     2    0.00000000    0.00000000   -1.05823535     2.000
     3    1.35098654    1.35098654   -1.88177340     1.300
     4   -1.84548193    0.49449539   -1.88177340     1.300
     5    0.49449539   -1.84548193   -1.88177340     1.300
 number of segments per atom =         32
 number of   points per atom =        128
 atom (   nspa,  nppa )
 ----------------------
    1 (     16,    64 )      64
    2 (     21,    46 )      46
    3 (     15,    36 )      36
    4 (     11,    35 )      35
    5 (     11,    35 )      35
 number of -cosmo- surface points =       74
 molecular surface =     54.239 angstrom**2
 molecular volume  =     30.321 angstrom**3
 G(cav/disp)       =      1.131 kcal/mol
 ...... end of -cosmo- initialization ......


  Caching 1-el integrals 
  Rotation of axis 

            General Information
            -------------------
          SCF calculation type: DFT
          Wavefunction type:  closed shell.
          No. of atoms     :     5
          No. of electrons :    18
           Alpha electrons :     9
            Beta electrons :     9
          Charge           :    -1
          Spin multiplicity:     1
          Use of symmetry is: on ; symmetry adaption is: on 
          Maximum number of iterations:  30
          AO basis - number of functions:    36
                     number of shells:    18
          Convergence on energy requested: 1.00D-06
          Convergence on density requested: 1.00D-05
          Convergence on gradient requested: 5.00D-04

              XC Information
              --------------
                         B3LYP Method XC Potential
                     Hartree-Fock (Exact) Exchange  0.200          
                        Slater Exchange Functional  0.800 local    
                    Becke 1988 Exchange Functional  0.720 non-local
              Lee-Yang-Parr Correlation Functional  0.810          
                  VWN I RPA Correlation Functional  0.190 local    

             Grid Information
             ----------------
          Grid used for XC integration:  medium    
          Radial quadrature: Mura-Knowles        
          Angular quadrature: Lebedev. 
          Tag              B.-S. Rad. Rad. Pts. Rad. Cut. Ang. Pts.
          ---              ---------- --------- --------- ---------
          o                   0.60       49           7.0       434
          c                   0.70       49           6.0       434
          h                   0.35       45           6.0       434
          Grid pruning is: on 
          Number of quadrature shells:   143
          Spatial weights used:  Erf1

          Convergence Information
          -----------------------
          Convergence aids based upon iterative change in 
          total energy or number of iterations. 
          Levelshifting, if invoked, occurs when the 
          HOMO/LUMO gap drops below (HL_TOL): 1.00D-02
          DIIS, if invoked, will attempt to extrapolate 
          using up to (NFOCK): 10 stored Fock matrices.

                    Damping( 0%)  Levelshifting(0.5)       DIIS
                  --------------- ------------------- ---------------
          dE  on:    start            ASAP                start   
          dE off:    2 iters         30 iters            30 iters 


      Screening Tolerance Information
      -------------------------------
          Density screening/tol_rho: 1.00D-10
          AO Gaussian exp screening on grid/accAOfunc:  14
          CD Gaussian exp screening on grid/accCDfunc:  20
          XC Gaussian exp screening on grid/accXCfunc:  20
          Schwarz screening/accCoul: 1.00D-08


      Superposition of Atomic Density Guess
      -------------------------------------

 Sum of atomic energies:        -113.90930400

 Renormalizing density from      17.00 to     18

      Non-variational initial energy
      ------------------------------

 Total energy =    -118.682639
 1-e energy   =    -236.279763
 2-e energy   =      83.091251
 HOMO         =       0.126695
 LUMO         =       0.465824


      Symmetry analysis of molecular orbitals - initial
      -------------------------------------------------

  Numbering of irreducible representations: 

     1 a1          2 a2          3 e       

  Orbital symmetries:

     1 a1          2 a1          3 a1          4 a1          5 e       
     6 e           7 a1          8 e           9 e          10 a1      
    11 e          12 e          13 a1         14 e          15 e       
    16 a1         17 a1         18 e          19 e       

   Time after variat. SCF:      0.1
   Time prior to 1st pass:      0.1

 #quartets = 6.629D+03 #integrals = 7.316D+04 #direct =  0.0% #cached =100.0%


 Integral file          = /home/d3y133/nwchem-releases/nwchem-6.3/QA/scratchdir/h3cona_dat.aoints.0
 Record size in doubles =  65536        No. of integs per rec  =  43688
 Max. records in memory =      2        Max. records in file   =   1316
 No. of bits per label  =      8        No. of bits per value  =     64


File balance: exchanges=     0  moved=     0  time=   0.0


 Grid_pts file          = /home/d3y133/nwchem-releases/nwchem-6.3/QA/scratchdir/h3cona_dat.gridpts.0
 Record size in doubles =  12289        No. of grid_pts per rec  =   3070
 Max. records in memory =      7        Max. recs in file   =      7022


           Memory utilization after 1st SCF pass: 
           Heap Space remaining (MW):       12.89            12887673
          Stack Space remaining (MW):       13.11            13106872

   convergence    iter        energy       DeltaE   RMS-Dens  Diis-err    time
 ---------------- ----- ----------------- --------- --------- ---------  ------
     COSMO gas phase
 d= 0,ls=0.0,diis     1   -114.9403144055 -1.49D+02  3.53D-02  1.02D+00     0.2
 d= 0,ls=0.0,diis     2   -114.9325506774  7.76D-03  2.14D-02  1.14D+00     0.3
 d= 0,ls=0.0,diis     3   -115.0637142312 -1.31D-01  2.14D-03  8.33D-03     0.4
 d= 0,ls=0.0,diis     4   -115.0645941949 -8.80D-04  1.21D-03  1.33D-03     0.4
 d= 0,ls=0.0,diis     5   -115.0646703144 -7.61D-05  6.73D-04  3.87D-04     0.5
  Resetting Diis
 d= 0,ls=0.0,diis     6   -115.0647112501 -4.09D-05  1.58D-05  3.64D-07     0.6
 d= 0,ls=0.0,diis     7   -115.0647112940 -4.39D-08  6.08D-06  1.17D-08     0.7

           Memory utilization after 1st SCF pass: 
           Heap Space remaining (MW):       12.89            12887361
          Stack Space remaining (MW):       13.11            13106872

   convergence    iter        energy       DeltaE   RMS-Dens  Diis-err    time
 ---------------- ----- ----------------- --------- --------- ---------  ------
     COSMO solvation phase
 d= 0,ls=0.0,diis     1   -115.1848813313 -1.20D-01  1.32D-02  7.38D-03     0.8
 d= 0,ls=0.0,diis     2   -115.1872475734 -2.37D-03  2.04D-03  9.22D-03     0.9
 d= 0,ls=0.0,diis     3   -115.1880671933 -8.20D-04  6.49D-04  3.26D-04     1.0
 d= 0,ls=0.0,diis     4   -115.1880950962 -2.79D-05  1.69D-04  4.80D-05     1.1
 d= 0,ls=0.0,diis     5   -115.1880995853 -4.49D-06  4.60D-05  8.37D-06     1.2
 d= 0,ls=0.0,diis     6   -115.1881005758 -9.90D-07  4.47D-06  2.89D-08     1.2
 d= 0,ls=0.0,diis     7   -115.1881005726  3.18D-09  4.62D-07  3.85D-10     1.3


         Total DFT energy =     -115.188100572570
      One electron energy =     -235.052365406186
           Coulomb energy =       96.676859519420
    Exchange-Corr. energy =      -15.446856883810
 Nuclear repulsion energy =       34.505872551266

 Numeric. integr. density =       17.999999960402

     Total iterative time =      1.3s


                  COSMO solvation results
                  -----------------------
  
                 gas phase energy =      -115.0647112940
                 sol phase energy =      -115.1881005726
 (electrostatic) solvation energy =         0.1233892785 (   77.43 kcal/mol)

                  Occupations of the irreducible representations
                  ----------------------------------------------

                     irrep           alpha         beta
                     --------     --------     --------
                     a1                5.0          5.0
                     a2                0.0          0.0
                     e                 4.0          4.0


                       DFT Final Molecular Orbital Analysis
                       ------------------------------------

 Vector    1  Occ=2.000000D+00  E=-1.896401D+01  Symmetry=a1
              MO Center= -5.4D-24, -8.3D-24,  7.9D-01, r^2= 1.5D-02
   Bfn.  Coefficient  Atom+Function         Bfn.  Coefficient  Atom+Function  
  ----- ------------  ---------------      ----- ------------  ---------------
     1      0.992901  1 O  s          

 Vector    2  Occ=2.000000D+00  E=-1.015628D+01  Symmetry=a1
              MO Center=  0.0D+00,  0.0D+00, -5.6D-01, r^2= 2.8D-02
   Bfn.  Coefficient  Atom+Function         Bfn.  Coefficient  Atom+Function  
  ----- ------------  ---------------      ----- ------------  ---------------
    16      0.992926  2 C  s          

 Vector    3  Occ=2.000000D+00  E=-8.398037D-01  Symmetry=a1
              MO Center= -1.1D-18, -1.5D-18,  3.7D-01, r^2= 6.8D-01
   Bfn.  Coefficient  Atom+Function         Bfn.  Coefficient  Atom+Function  
  ----- ------------  ---------------      ----- ------------  ---------------
     6      0.417326  1 O  s                  2      0.405701  1 O  s          
    17      0.220298  2 C  s                  1     -0.190152  1 O  s          

 Vector    4  Occ=2.000000D+00  E=-5.767766D-01  Symmetry=a1
              MO Center=  5.5D-17,  8.7D-17, -6.2D-01, r^2= 1.4D+00
   Bfn.  Coefficient  Atom+Function         Bfn.  Coefficient  Atom+Function  
  ----- ------------  ---------------      ----- ------------  ---------------
    17     -0.310835  2 C  s                  6      0.295343  1 O  s          
    21     -0.278793  2 C  s                  2      0.219713  1 O  s          
    20      0.203660  2 C  pz                16      0.154312  2 C  s          

 Vector    5  Occ=2.000000D+00  E=-3.646650D-01  Symmetry=e
              MO Center= -2.1D-01, -1.4D-03, -6.0D-01, r^2= 1.4D+00
   Bfn.  Coefficient  Atom+Function         Bfn.  Coefficient  Atom+Function  
  ----- ------------  ---------------      ----- ------------  ---------------
    18      0.394762  2 C  px                33     -0.243733  4 H  s          
    34     -0.237295  4 H  s                 22      0.171507  2 C  px         
    19     -0.165086  2 C  py                 3      0.163869  1 O  px         
    35      0.150384  5 H  s          

 Vector    6  Occ=2.000000D+00  E=-3.646650D-01  Symmetry=e
              MO Center=  2.1D-01,  1.4D-03, -6.0D-01, r^2= 1.4D+00
   Bfn.  Coefficient  Atom+Function         Bfn.  Coefficient  Atom+Function  
  ----- ------------  ---------------      ----- ------------  ---------------
    19      0.394762  2 C  py                31      0.227544  3 H  s          
    32      0.221533  3 H  s                 35     -0.194615  5 H  s          
    36     -0.189474  5 H  s                 23      0.171507  2 C  py         
    18      0.165086  2 C  px                 4      0.163869  1 O  py         

 Vector    7  Occ=2.000000D+00  E=-2.867985D-01  Symmetry=a1
              MO Center= -1.0D-16, -6.1D-17,  5.5D-01, r^2= 1.2D+00
   Bfn.  Coefficient  Atom+Function         Bfn.  Coefficient  Atom+Function  
  ----- ------------  ---------------      ----- ------------  ---------------
     5      0.481379  1 O  pz                 6      0.452044  1 O  s          
    20     -0.361937  2 C  pz                 9      0.299539  1 O  pz         

 Vector    8  Occ=2.000000D+00  E=-1.273803D-01  Symmetry=e
              MO Center=  6.0D-02, -4.8D-02,  4.8D-01, r^2= 1.3D+00
   Bfn.  Coefficient  Atom+Function         Bfn.  Coefficient  Atom+Function  
  ----- ------------  ---------------      ----- ------------  ---------------
     4      0.576409  1 O  py                 8      0.495337  1 O  py         
    36      0.318985  5 H  s                 32     -0.249618  3 H  s          

 Vector    9  Occ=2.000000D+00  E=-1.273803D-01  Symmetry=e
              MO Center= -6.0D-02,  4.8D-02,  4.8D-01, r^2= 1.3D+00
   Bfn.  Coefficient  Atom+Function         Bfn.  Coefficient  Atom+Function  
  ----- ------------  ---------------      ----- ------------  ---------------
     3      0.576409  1 O  px                 7      0.495337  1 O  px         
    34      0.328283  4 H  s                 32     -0.224215  3 H  s          
    33      0.154350  4 H  s          

 Vector   10  Occ=0.000000D+00  E= 1.473205D-01  Symmetry=a1
              MO Center= -2.8D-17,  1.1D-16, -1.1D+00, r^2= 3.4D+00
   Bfn.  Coefficient  Atom+Function         Bfn.  Coefficient  Atom+Function  
  ----- ------------  ---------------      ----- ------------  ---------------
    21      2.339760  2 C  s                 32     -1.192746  3 H  s          
    34     -1.192746  4 H  s                 36     -1.192746  5 H  s          
    24     -0.740545  2 C  pz                20     -0.218438  2 C  pz         

 Vector   11  Occ=0.000000D+00  E= 2.203787D-01  Symmetry=e
              MO Center= -4.5D-01,  7.8D-02, -9.1D-01, r^2= 2.8D+00
   Bfn.  Coefficient  Atom+Function         Bfn.  Coefficient  Atom+Function  
  ----- ------------  ---------------      ----- ------------  ---------------
    34      1.771915  4 H  s                 22      1.287083  2 C  px         
    36     -0.953681  5 H  s                 32     -0.818234  3 H  s          
    18      0.436427  2 C  px                23     -0.406483  2 C  py         
     7     -0.302257  1 O  px         

 Vector   12  Occ=0.000000D+00  E= 2.203787D-01  Symmetry=e
              MO Center=  4.5D-01, -7.8D-02, -9.1D-01, r^2= 2.8D+00
   Bfn.  Coefficient  Atom+Function         Bfn.  Coefficient  Atom+Function  
  ----- ------------  ---------------      ----- ------------  ---------------
    32      1.573624  3 H  s                 36     -1.495423  5 H  s          
    23     -1.287083  2 C  py                19     -0.436427  2 C  py         
    22     -0.406483  2 C  px                 8      0.302257  1 O  py         

 Vector   13  Occ=0.000000D+00  E= 2.615064D-01  Symmetry=a1
              MO Center=  1.9D-15,  3.6D-15, -5.6D-01, r^2= 2.5D+00
   Bfn.  Coefficient  Atom+Function         Bfn.  Coefficient  Atom+Function  
  ----- ------------  ---------------      ----- ------------  ---------------
     6      1.674181  1 O  s                 24     -1.629684  2 C  pz         
    21     -1.510471  2 C  s                  9     -0.933147  1 O  pz         
     5     -0.265267  1 O  pz         

 Vector   14  Occ=0.000000D+00  E= 6.208986D-01  Symmetry=e
              MO Center=  2.4D-01, -2.5D-02, -5.0D-01, r^2= 2.0D+00
   Bfn.  Coefficient  Atom+Function         Bfn.  Coefficient  Atom+Function  
  ----- ------------  ---------------      ----- ------------  ---------------
    22      1.686723  2 C  px                18     -0.710046  2 C  px         
    23     -0.598906  2 C  py                34      0.497435  4 H  s          
    33      0.454133  4 H  s                 36     -0.282988  5 H  s          
    35     -0.258354  5 H  s                 19      0.252117  2 C  py         
     7     -0.243500  1 O  px                32     -0.214447  3 H  s          

 Vector   15  Occ=0.000000D+00  E= 6.208986D-01  Symmetry=e
              MO Center= -2.4D-01,  2.5D-02, -5.0D-01, r^2= 2.0D+00
   Bfn.  Coefficient  Atom+Function         Bfn.  Coefficient  Atom+Function  
  ----- ------------  ---------------      ----- ------------  ---------------
    23      1.686723  2 C  py                19     -0.710046  2 C  py         
    22      0.598906  2 C  px                32     -0.450577  3 H  s          
    31     -0.411354  3 H  s                 36      0.411005  5 H  s          
    35      0.375227  5 H  s                 18     -0.252117  2 C  px         
     8     -0.243500  1 O  py                 4     -0.183963  1 O  py         

 Vector   16  Occ=0.000000D+00  E= 6.506227D-01  Symmetry=a1
              MO Center= -1.5D-15,  5.5D-16, -2.2D-01, r^2= 1.4D+00
   Bfn.  Coefficient  Atom+Function         Bfn.  Coefficient  Atom+Function  
  ----- ------------  ---------------      ----- ------------  ---------------
    24      1.150579  2 C  pz                20     -1.018394  2 C  pz         
     6     -0.590182  1 O  s                 17     -0.405045  2 C  s          
     5     -0.392602  1 O  pz                 2      0.194560  1 O  s          

 Vector   17  Occ=0.000000D+00  E= 8.978059D-01  Symmetry=a1
              MO Center=  2.9D-14,  1.5D-16,  5.6D-01, r^2= 2.5D+00
   Bfn.  Coefficient  Atom+Function         Bfn.  Coefficient  Atom+Function  
  ----- ------------  ---------------      ----- ------------  ---------------
     6      1.422288  1 O  s                 21      1.036081  2 C  s          
     2     -0.868019  1 O  s                  9      0.627434  1 O  pz         
     5     -0.483657  1 O  pz                24     -0.466101  2 C  pz         
    31     -0.396406  3 H  s                 33     -0.396406  4 H  s          
    35     -0.396406  5 H  s                 15     -0.341324  1 O  dzz        

 Vector   18  Occ=0.000000D+00  E= 8.991588D-01  Symmetry=e
              MO Center= -3.0D-01, -2.4D-01, -8.6D-01, r^2= 2.0D+00
   Bfn.  Coefficient  Atom+Function         Bfn.  Coefficient  Atom+Function  
  ----- ------------  ---------------      ----- ------------  ---------------
    34      1.441223  4 H  s                 36     -1.341098  5 H  s          
    22      0.947993  2 C  px                23     -0.836750  2 C  py         
    33     -0.737676  4 H  s                 35      0.686428  5 H  s          
    18     -0.612455  2 C  px                19      0.540586  2 C  py         
    27     -0.167471  2 C  dxz        

 Vector   19  Occ=0.000000D+00  E= 8.991588D-01  Symmetry=e
              MO Center=  3.0D-01,  2.4D-01, -8.6D-01, r^2= 2.0D+00
   Bfn.  Coefficient  Atom+Function         Bfn.  Coefficient  Atom+Function  
  ----- ------------  ---------------      ----- ------------  ---------------
    32      1.606374  3 H  s                 23     -0.947993  2 C  py         
    36     -0.889898  5 H  s                 22     -0.836750  2 C  px         
    31     -0.822207  3 H  s                 34     -0.716476  4 H  s          
    19      0.612455  2 C  py                18      0.540586  2 C  px         
    35      0.455486  5 H  s                 33      0.366722  4 H  s          


 center of mass
 --------------
 x =   0.00000000 y =   0.00000000 z =   0.18032899

 moments of inertia (a.u.)
 ------------------
          64.611309796422           0.000000000000           0.000000000000
           0.000000000000          64.611309796422           0.000000000000
           0.000000000000           0.000000000000          11.036679212476

     Multipole analysis of the density
     ---------------------------------

     L   x y z        total         alpha         beta         nuclear
     -   - - -        -----         -----         ----         -------
     0   0 0 0     -1.000000     -9.000000     -9.000000     17.000000

     1   1 0 0      0.000000      0.000000      0.000000      0.000000
     1   0 1 0      0.000000      0.000000      0.000000      0.000000
     1   0 0 1     -1.167390     -0.583695     -0.583695      0.000000

     2   2 0 0    -11.434757     -8.455126     -8.455126      5.475494
     2   1 1 0      0.000000      0.000000      0.000000      0.000000
     2   1 0 1      0.000000      0.000000      0.000000      0.000000
     2   0 2 0    -11.434757     -8.455126     -8.455126      5.475494
     2   0 1 1      0.000000      0.000000      0.000000      0.000000
     2   0 0 2    -14.209404    -24.767995    -24.767995     35.326586


 Parallel integral file used       4 records with       0 large values


 Task  times  cpu:        1.3s     wall:        1.8s


                                NWChem Input Module
                                -------------------




                           NWChem Geometry Optimization
                           ----------------------------


 maximum gradient threshold         (gmax) =   0.000450
 rms gradient threshold             (grms) =   0.000300
 maximum cartesian step threshold   (xmax) =   0.001800
 rms cartesian step threshold       (xrms) =   0.001200
 fixed trust radius                (trust) =   0.300000
 maximum step size to saddle      (sadstp) =   0.100000
 energy precision                  (eprec) =   5.0D-06
 maximum number of steps          (nptopt) =   20
 initial hessian option           (inhess) =    0
 line search option               (linopt) =    1
 hessian update option            (modupd) =    1
 saddle point option              (modsad) =    0
 initial eigen-mode to follow     (moddir) =    0
 initial variable to follow       (vardir) =    0
 follow first negative mode     (firstneg) =    T
 apply conjugacy                    (opcg) =    F
 source of zmatrix                         =   autoz   


          -------------------
          Energy Minimization
          -------------------


 Names of Z-matrix variables 
    1              2              3              4              5         
    6              7              8              9             10         

 Variables with the same non-blank name are constrained to be equal


 Using diagonal initial Hessian 
 Scaling for Hessian diagonals: bonds = 1.00  angles = 0.25  torsions = 0.10

          --------
          Step   0
          --------


                         Geometry "geometry" -> "geometry"
                         ---------------------------------

 Output coordinates in angstroms (scale by  1.889725989 to convert to a.u.)

  No.       Tag          Charge          X              Y              Z
 ---- ---------------- ---------- -------------- -------------- --------------
    1 o                    8.0000     0.00000000     0.00000000     0.79341743
    2 c                    6.0000     0.00000000     0.00000000    -0.55999407
    3 h                    1.0000     0.71491134     0.71491134    -0.99579167
    4 h                    1.0000    -0.97658705     0.26167571    -0.99579167
    5 h                    1.0000     0.26167571    -0.97658705    -0.99579167

      Atomic Mass 
      ----------- 

      o                 15.994910
      c                 12.000000
      h                  1.007825


 Effective nuclear repulsion energy (a.u.)      34.5058725513

            Nuclear Dipole moment (a.u.) 
            ----------------------------
        X                 Y               Z
 ---------------- ---------------- ----------------
     0.0000000000     0.0000000000     0.0000000000

      Symmetry information
      --------------------

 Group name             C3v       
 Group number             17
 Group order               6
 No. of unique centers     3

      Symmetry unique atoms

     1    2    3


                                 NWChem DFT Module
                                 -----------------



          ---------------
          -cosmo- solvent
          ---------------
 dielectric constant -eps-  =  78.40
 charge screening approach  =   1
 screen = (eps-1)/(eps    ) =   0.98724
 -lineq- algorithm          =   1
 -bem- low  level           =   2
 -bem- high level           =   3
 -bem- from -octahedral-
 solvent radius (ang.)      =   0.500
 atomic radii = 
 --------------
    1  8.000  1.720
    2  6.000  2.000
    3  1.000  1.300
    4  1.000  1.300
    5  1.000  1.300

 solvent accessible surface
 --------------------------

 ---------- ATOMIC COORDINATES (A.U.) ------------ VDWR(ANG.) --
     1    0.00000000    0.00000000    1.49934154     1.720
     2    0.00000000    0.00000000   -1.05823535     2.000
     3    1.35098654    1.35098654   -1.88177340     1.300
     4   -1.84548193    0.49449539   -1.88177340     1.300
     5    0.49449539   -1.84548193   -1.88177340     1.300
 number of segments per atom =         32
 number of   points per atom =        128
 atom (   nspa,  nppa )
 ----------------------
    1 (     16,    64 )      64
    2 (     21,    46 )      46
    3 (     15,    36 )      36
    4 (     11,    35 )      35
    5 (     11,    35 )      35
 number of -cosmo- surface points =       74
 molecular surface =     54.239 angstrom**2
 molecular volume  =     30.321 angstrom**3
 G(cav/disp)       =      1.131 kcal/mol
 ...... end of -cosmo- initialization ......


  Caching 1-el integrals 
  Rotation of axis 

            General Information
            -------------------
          SCF calculation type: DFT
          Wavefunction type:  closed shell.
          No. of atoms     :     5
          No. of electrons :    18
           Alpha electrons :     9
            Beta electrons :     9
          Charge           :    -1
          Spin multiplicity:     1
          Use of symmetry is: on ; symmetry adaption is: on 
          Maximum number of iterations:  30
          AO basis - number of functions:    36
                     number of shells:    18
          Convergence on energy requested: 1.00D-06
          Convergence on density requested: 1.00D-05
          Convergence on gradient requested: 5.00D-04

              XC Information
              --------------
                         B3LYP Method XC Potential
                     Hartree-Fock (Exact) Exchange  0.200          
                        Slater Exchange Functional  0.800 local    
                    Becke 1988 Exchange Functional  0.720 non-local
              Lee-Yang-Parr Correlation Functional  0.810          
                  VWN I RPA Correlation Functional  0.190 local    

             Grid Information
             ----------------
          Grid used for XC integration:  medium    
          Radial quadrature: Mura-Knowles        
          Angular quadrature: Lebedev. 
          Tag              B.-S. Rad. Rad. Pts. Rad. Cut. Ang. Pts.
          ---              ---------- --------- --------- ---------
          o                   0.60       49           7.0       434
          c                   0.70       49           6.0       434
          h                   0.35       45           6.0       434
          Grid pruning is: on 
          Number of quadrature shells:   143
          Spatial weights used:  Erf1

          Convergence Information
          -----------------------
          Convergence aids based upon iterative change in 
          total energy or number of iterations. 
          Levelshifting, if invoked, occurs when the 
          HOMO/LUMO gap drops below (HL_TOL): 1.00D-02
          DIIS, if invoked, will attempt to extrapolate 
          using up to (NFOCK): 10 stored Fock matrices.

                    Damping( 0%)  Levelshifting(0.5)       DIIS
                  --------------- ------------------- ---------------
          dE  on:    start            ASAP                start   
          dE off:    2 iters         30 iters            30 iters 


      Screening Tolerance Information
      -------------------------------
          Density screening/tol_rho: 1.00D-10
          AO Gaussian exp screening on grid/accAOfunc:  14
          CD Gaussian exp screening on grid/accCDfunc:  20
          XC Gaussian exp screening on grid/accXCfunc:  20
          Schwarz screening/accCoul: 1.00D-08


 Loading old vectors from job with title :




      Symmetry analysis of molecular orbitals - initial
      -------------------------------------------------

  Numbering of irreducible representations: 

     1 a1          2 a2          3 e       

  Orbital symmetries:

     1 a1          2 a1          3 a1          4 a1          5 e       
     6 e           7 a1          8 e           9 e          10 a1      
    11 e          12 e          13 a1         14 e          15 e       
    16 a1         17 a1         18 e          19 e       

   Time after variat. SCF:      1.4
   Time prior to 1st pass:      1.4

 #quartets = 6.629D+03 #integrals = 7.316D+04 #direct =  0.0% #cached =100.0%


 Integral file          = /home/d3y133/nwchem-releases/nwchem-6.3/QA/scratchdir/h3cona_dat.aoints.0
 Record size in doubles =  65536        No. of integs per rec  =  43688
 Max. records in memory =      2        Max. records in file   =   1316
 No. of bits per label  =      8        No. of bits per value  =     64


File balance: exchanges=     0  moved=     0  time=   0.0


 Grid_pts file          = /home/d3y133/nwchem-releases/nwchem-6.3/QA/scratchdir/h3cona_dat.gridpts.0
 Record size in doubles =  12289        No. of grid_pts per rec  =   3070
 Max. records in memory =      7        Max. recs in file   =      7022


           Memory utilization after 1st SCF pass: 
           Heap Space remaining (MW):       12.89            12887316
          Stack Space remaining (MW):       13.11            13106872

   convergence    iter        energy       DeltaE   RMS-Dens  Diis-err    time
 ---------------- ----- ----------------- --------- --------- ---------  ------
     COSMO solvation phase
 d= 0,ls=0.0,diis     1   -115.1881005733 -1.50D+02  1.25D-07  1.00D-11     1.6
 d= 0,ls=0.0,diis     2   -115.1881005622  1.11D-08  9.01D-08  1.46D-11     1.7
 d= 0,ls=0.0,diis     3   -115.1881005207  4.16D-08  1.51D-08  3.22D-13     1.7
 d= 0,ls=0.0,diis     4   -115.1881005551 -3.45D-08  3.53D-09  3.90D-14     1.9
 d= 0,ls=0.0,diis     5   -115.1881005474  7.72D-09  4.46D-09  4.90D-15     1.9
  Singularity in Pulay matrix. Error and Fock matrices removed. 
  Singularity in Pulay matrix. Error and Fock matrices removed. 
  Singularity in Pulay matrix. Error and Fock matrices removed. 
  Resetting Diis
 d= 0,ls=0.0,diis     6   -115.1881005646 -1.71D-08  1.64D-09  4.15D-16     2.0
 d= 0,ls=0.0,diis     7   -115.1881005550  9.55D-09  4.04D-09  9.80D-16     2.1


         Total DFT energy =     -115.188100555006
      One electron energy =     -235.052357446216
           Coulomb energy =       96.676851891414
    Exchange-Corr. energy =      -15.446856905264
 Nuclear repulsion energy =       34.505872551266

 Numeric. integr. density =       17.999999960406

     Total iterative time =      0.8s


                  COSMO solvation results
                  -----------------------
  
     skipped: no gas phase energy
                 sol phase energy =      -115.1881005550

                  Occupations of the irreducible representations
                  ----------------------------------------------

                     irrep           alpha         beta
                     --------     --------     --------
                     a1                5.0          5.0
                     a2                0.0          0.0
                     e                 4.0          4.0


                       DFT Final Molecular Orbital Analysis
                       ------------------------------------

 Vector    1  Occ=2.000000D+00  E=-1.896401D+01  Symmetry=a1
              MO Center=  2.3D-19, -2.3D-19,  7.9D-01, r^2= 1.5D-02
   Bfn.  Coefficient  Atom+Function         Bfn.  Coefficient  Atom+Function  
  ----- ------------  ---------------      ----- ------------  ---------------
     1      0.992901  1 O  s          

 Vector    2  Occ=2.000000D+00  E=-1.015628D+01  Symmetry=a1
              MO Center= -1.8D-18, -3.5D-19, -5.6D-01, r^2= 2.8D-02
   Bfn.  Coefficient  Atom+Function         Bfn.  Coefficient  Atom+Function  
  ----- ------------  ---------------      ----- ------------  ---------------
    16      0.992926  2 C  s          

 Vector    3  Occ=2.000000D+00  E=-8.398031D-01  Symmetry=a1
              MO Center= -1.1D-18, -3.0D-18,  3.7D-01, r^2= 6.8D-01
   Bfn.  Coefficient  Atom+Function         Bfn.  Coefficient  Atom+Function  
  ----- ------------  ---------------      ----- ------------  ---------------
     6      0.417326  1 O  s                  2      0.405701  1 O  s          
    17      0.220298  2 C  s                  1     -0.190152  1 O  s          

 Vector    4  Occ=2.000000D+00  E=-5.767761D-01  Symmetry=a1
              MO Center= -2.0D-17, -3.5D-17, -6.2D-01, r^2= 1.4D+00
   Bfn.  Coefficient  Atom+Function         Bfn.  Coefficient  Atom+Function  
  ----- ------------  ---------------      ----- ------------  ---------------
    17     -0.310834  2 C  s                  6      0.295343  1 O  s          
    21     -0.278793  2 C  s                  2      0.219713  1 O  s          
    20      0.203660  2 C  pz                16      0.154312  2 C  s          

 Vector    5  Occ=2.000000D+00  E=-3.646646D-01  Symmetry=e
              MO Center=  1.1D-01, -1.8D-01, -6.0D-01, r^2= 1.4D+00
   Bfn.  Coefficient  Atom+Function         Bfn.  Coefficient  Atom+Function  
  ----- ------------  ---------------      ----- ------------  ---------------
    19      0.424383  2 C  py                35     -0.243754  5 H  s          
    36     -0.237314  5 H  s                 23      0.184376  2 C  py         
     4      0.176164  1 O  py                31      0.150264  3 H  s          

 Vector    6  Occ=2.000000D+00  E=-3.646646D-01  Symmetry=e
              MO Center= -1.1D-01,  1.8D-01, -6.0D-01, r^2= 1.4D+00
   Bfn.  Coefficient  Atom+Function         Bfn.  Coefficient  Atom+Function  
  ----- ------------  ---------------      ----- ------------  ---------------
    18      0.424383  2 C  px                33     -0.227486  4 H  s          
    34     -0.221477  4 H  s                 31      0.194708  3 H  s          
    32      0.189564  3 H  s                 22      0.184376  2 C  px         
     3      0.176164  1 O  px         

 Vector    7  Occ=2.000000D+00  E=-2.867980D-01  Symmetry=a1
              MO Center= -3.0D-18, -3.5D-18,  5.5D-01, r^2= 1.2D+00
   Bfn.  Coefficient  Atom+Function         Bfn.  Coefficient  Atom+Function  
  ----- ------------  ---------------      ----- ------------  ---------------
     5      0.481379  1 O  pz                 6      0.452044  1 O  s          
    20     -0.361937  2 C  pz                 9      0.299539  1 O  pz         

 Vector    8  Occ=2.000000D+00  E=-1.273798D-01  Symmetry=e
              MO Center= -7.2D-02, -2.6D-02,  4.8D-01, r^2= 1.3D+00
   Bfn.  Coefficient  Atom+Function         Bfn.  Coefficient  Atom+Function  
  ----- ------------  ---------------      ----- ------------  ---------------
     3      0.486962  1 O  px                 7      0.418471  1 O  px         
    34      0.320043  4 H  s                  4     -0.309952  1 O  py         
     8     -0.266358  1 O  py                36     -0.247288  5 H  s          
    33      0.150476  4 H  s          

 Vector    9  Occ=2.000000D+00  E=-1.273798D-01  Symmetry=e
              MO Center=  7.2D-02,  2.6D-02,  4.8D-01, r^2= 1.3D+00
   Bfn.  Coefficient  Atom+Function         Bfn.  Coefficient  Atom+Function  
  ----- ------------  ---------------      ----- ------------  ---------------
     4      0.486962  1 O  py                 8      0.418471  1 O  py         
    32     -0.327549  3 H  s                  3      0.309952  1 O  px         
     7      0.266358  1 O  px                36      0.226782  5 H  s          
    31     -0.154005  3 H  s          

 Vector   10  Occ=0.000000D+00  E= 1.473208D-01  Symmetry=a1
              MO Center=  5.6D-17, -1.1D-16, -1.1D+00, r^2= 3.4D+00
   Bfn.  Coefficient  Atom+Function         Bfn.  Coefficient  Atom+Function  
  ----- ------------  ---------------      ----- ------------  ---------------
    21      2.339760  2 C  s                 32     -1.192746  3 H  s          
    34     -1.192746  4 H  s                 36     -1.192746  5 H  s          
    24     -0.740546  2 C  pz                20     -0.218438  2 C  pz         

 Vector   11  Occ=0.000000D+00  E= 2.203790D-01  Symmetry=e
              MO Center=  2.4D-01,  3.9D-01, -9.1D-01, r^2= 2.8D+00
   Bfn.  Coefficient  Atom+Function         Bfn.  Coefficient  Atom+Function  
  ----- ------------  ---------------      ----- ------------  ---------------
    32      1.761263  3 H  s                 22     -1.060309  2 C  px         
    34     -1.061775  4 H  s                 23     -0.835200  2 C  py         
    36     -0.699488  5 H  s                 18     -0.359532  2 C  px         
    19     -0.283201  2 C  py                 7      0.249002  1 O  px         
     8      0.196137  1 O  py         

 Vector   12  Occ=0.000000D+00  E= 2.203790D-01  Symmetry=e
              MO Center= -2.4D-01, -3.9D-01, -9.1D-01, r^2= 2.8D+00
   Bfn.  Coefficient  Atom+Function         Bfn.  Coefficient  Atom+Function  
  ----- ------------  ---------------      ----- ------------  ---------------
    36      1.629882  5 H  s                 34     -1.420715  4 H  s          
    23      1.060309  2 C  py                22     -0.835200  2 C  px         
    19      0.359532  2 C  py                18     -0.283201  2 C  px         
     8     -0.249002  1 O  py                32     -0.209167  3 H  s          
     7      0.196137  1 O  px         

 Vector   13  Occ=0.000000D+00  E= 2.615068D-01  Symmetry=a1
              MO Center=  1.3D-15, -1.7D-15, -5.6D-01, r^2= 2.5D+00
   Bfn.  Coefficient  Atom+Function         Bfn.  Coefficient  Atom+Function  
  ----- ------------  ---------------      ----- ------------  ---------------
     6      1.674181  1 O  s                 24     -1.629684  2 C  pz         
    21     -1.510472  2 C  s                  9     -0.933148  1 O  pz         
     5     -0.265267  1 O  pz         

 Vector   14  Occ=0.000000D+00  E= 6.208988D-01  Symmetry=e
              MO Center=  2.2D-01,  1.1D-01, -5.0D-01, r^2= 2.0D+00
   Bfn.  Coefficient  Atom+Function         Bfn.  Coefficient  Atom+Function  
  ----- ------------  ---------------      ----- ------------  ---------------
    22      1.456623  2 C  px                23     -1.040179  2 C  py         
    18     -0.613183  2 C  px                34      0.467311  4 H  s          
    19      0.437876  2 C  py                33      0.426632  4 H  s          
    36     -0.385216  5 H  s                 35     -0.351683  5 H  s          
     7     -0.210282  1 O  px                 3     -0.158867  1 O  px         

 Vector   15  Occ=0.000000D+00  E= 6.208988D-01  Symmetry=e
              MO Center= -2.2D-01, -1.1D-01, -5.0D-01, r^2= 2.0D+00
   Bfn.  Coefficient  Atom+Function         Bfn.  Coefficient  Atom+Function  
  ----- ------------  ---------------      ----- ------------  ---------------
    23      1.456623  2 C  py                22      1.040179  2 C  px         
    19     -0.613183  2 C  py                32     -0.492207  3 H  s          
    31     -0.449360  3 H  s                 18     -0.437876  2 C  px         
    36      0.317200  5 H  s                 35      0.289588  5 H  s          
     8     -0.210282  1 O  py                34      0.175006  4 H  s          

 Vector   16  Occ=0.000000D+00  E= 6.506232D-01  Symmetry=a1
              MO Center=  2.7D-16, -1.9D-16, -2.2D-01, r^2= 1.4D+00
   Bfn.  Coefficient  Atom+Function         Bfn.  Coefficient  Atom+Function  
  ----- ------------  ---------------      ----- ------------  ---------------
    24      1.150578  2 C  pz                20     -1.018394  2 C  pz         
     6     -0.590182  1 O  s                 17     -0.405046  2 C  s          
     5     -0.392602  1 O  pz                 2      0.194560  1 O  s          

 Vector   17  Occ=0.000000D+00  E= 8.978063D-01  Symmetry=a1
              MO Center= -2.5D-16,  1.2D-17,  5.6D-01, r^2= 2.5D+00
   Bfn.  Coefficient  Atom+Function         Bfn.  Coefficient  Atom+Function  
  ----- ------------  ---------------      ----- ------------  ---------------
     6      1.422288  1 O  s                 21      1.036081  2 C  s          
     2     -0.868019  1 O  s                  9      0.627433  1 O  pz         
     5     -0.483656  1 O  pz                24     -0.466101  2 C  pz         
    31     -0.396406  3 H  s                 33     -0.396406  4 H  s          
    35     -0.396406  5 H  s                 15     -0.341324  1 O  dzz        

 Vector   18  Occ=0.000000D+00  E= 8.991591D-01  Symmetry=e
              MO Center= -7.4D-02,  3.8D-01, -8.6D-01, r^2= 2.0D+00
   Bfn.  Coefficient  Atom+Function         Bfn.  Coefficient  Atom+Function  
  ----- ------------  ---------------      ----- ------------  ---------------
    32      1.420604  3 H  s                 34     -1.365482  4 H  s          
    22     -1.209443  2 C  px                18      0.781367  2 C  px         
    31     -0.727123  3 H  s                 33      0.698909  4 H  s          
    23     -0.368902  2 C  py                19      0.238331  2 C  py         
    26     -0.215754  2 C  dxy               27      0.213658  2 C  dxz        

 Vector   19  Occ=0.000000D+00  E= 8.991591D-01  Symmetry=e
              MO Center=  7.4D-02, -3.8D-01, -8.6D-01, r^2= 2.0D+00
   Bfn.  Coefficient  Atom+Function         Bfn.  Coefficient  Atom+Function  
  ----- ------------  ---------------      ----- ------------  ---------------
    36      1.608547  5 H  s                 23      1.209443  2 C  py         
    34     -0.852011  4 H  s                 35     -0.823320  5 H  s          
    19     -0.781367  2 C  py                32     -0.756536  3 H  s          
    33      0.436094  4 H  s                 31      0.387226  3 H  s          
    22     -0.368902  2 C  px                18      0.238331  2 C  px         


 center of mass
 --------------
 x =   0.00000000 y =   0.00000000 z =   0.18032899

 moments of inertia (a.u.)
 ------------------
          64.611309796422           0.000000000000           0.000000000000
           0.000000000000          64.611309796422           0.000000000000
           0.000000000000           0.000000000000          11.036679212476

     Multipole analysis of the density
     ---------------------------------

     L   x y z        total         alpha         beta         nuclear
     -   - - -        -----         -----         ----         -------
     0   0 0 0     -1.000000     -9.000000     -9.000000     17.000000

     1   1 0 0      0.000000      0.000000      0.000000      0.000000
     1   0 1 0      0.000000      0.000000      0.000000      0.000000
     1   0 0 1     -1.167390     -0.583695     -0.583695      0.000000

     2   2 0 0    -11.434762     -8.455128     -8.455128      5.475494
     2   1 1 0      0.000000      0.000000      0.000000      0.000000
     2   1 0 1      0.000000      0.000000      0.000000      0.000000
     2   0 2 0    -11.434762     -8.455128     -8.455128      5.475494
     2   0 1 1      0.000000      0.000000      0.000000      0.000000
     2   0 0 2    -14.209407    -24.767996    -24.767996     35.326586


 Parallel integral file used       4 records with       0 large values



                            NWChem DFT Gradient Module
                            --------------------------



  charge          =  -1.00
  wavefunction    = closed shell

  Rotation of axis 
  Using symmetry


                         DFT ENERGY GRADIENTS

    atom               coordinates                        gradient
                 x          y          z           x          y          z
   1 o       0.000000   0.000000   1.499342    0.000000   0.000000  -0.004054
   2 c       0.000000   0.000000  -1.058235    0.000000   0.000000  -0.041226
   3 h       1.350987   1.350987  -1.881773   -0.009279  -0.009279   0.015093
   4 h      -1.845482   0.494495  -1.881773    0.012676  -0.003396   0.015093
   5 h       0.494495  -1.845482  -1.881773   -0.003396   0.012676   0.015093

                 ----------------------------------------
                 |  Time  |  1-e(secs)   |  2-e(secs)   |
                 ----------------------------------------
                 |  CPU   |       0.02   |       0.19   |
                 ----------------------------------------
                 |  WALL  |       0.03   |       0.19   |
                 ----------------------------------------

@ Step       Energy      Delta E   Gmax     Grms     Xrms     Xmax   Walltime
@ ---- ---------------- -------- -------- -------- -------- -------- --------
@    0    -115.18810056  0.0D+00  0.01803  0.01054  0.00000  0.00000      4.3
                                                                    



                                Z-matrix (autoz)
                                -------- 

 Units are Angstrom for bonds and degrees for angles

      Type          Name      I     J     K     L     M      Value     Gradient
      ----------- --------  ----- ----- ----- ----- ----- ---------- ----------
    1 Stretch                  1     2                       1.35341   -0.00405
    2 Stretch                  2     3                       1.10096   -0.01803
    3 Stretch                  2     4                       1.10096   -0.01803
    4 Stretch                  2     5                       1.10096   -0.01803
    5 Bend                     1     2     3               113.31798   -0.00419
    6 Bend                     1     2     4               113.31798   -0.00419
    7 Bend                     1     2     5               113.31798   -0.00419
    8 Bend                     3     2     4               105.36538    0.00473
    9 Bend                     3     2     5               105.36538    0.00473
   10 Bend                     4     2     5               105.36538    0.00473


                                 NWChem DFT Module
                                 -----------------



          ---------------
          -cosmo- solvent
          ---------------
 dielectric constant -eps-  =  78.40
 charge screening approach  =   1
 screen = (eps-1)/(eps    ) =   0.98724
 -lineq- algorithm          =   1
 -bem- low  level           =   2
 -bem- high level           =   3
 -bem- from -octahedral-
 solvent radius (ang.)      =   0.500
 atomic radii = 
 --------------
    1  8.000  1.720
    2  6.000  2.000
    3  1.000  1.300
    4  1.000  1.300
    5  1.000  1.300

 solvent accessible surface
 --------------------------

 ---------- ATOMIC COORDINATES (A.U.) ------------ VDWR(ANG.) --
     1    0.00000000    0.00000000    1.56767733     1.720
     2    0.00000000    0.00000000   -0.99959990     2.000
     3    1.35975776    1.35975776   -1.92409715     1.300
     4   -1.85746364    0.49770588   -1.92409715     1.300
     5    0.49770588   -1.85746364   -1.92409715     1.300
 number of segments per atom =         32
 number of   points per atom =        128
 atom (   nspa,  nppa )
 ----------------------
    1 (     16,    64 )      64
    2 (     23,    44 )      44
    3 (     15,    36 )      36
    4 (     11,    35 )      35
    5 (     11,    35 )      35
 number of -cosmo- surface points =       76
 molecular surface =     53.454 angstrom**2
 molecular volume  =     29.797 angstrom**3
 G(cav/disp)       =      1.127 kcal/mol
 ...... end of -cosmo- initialization ......


  Caching 1-el integrals 
  Rotation of axis 

            General Information
            -------------------
          SCF calculation type: DFT
          Wavefunction type:  closed shell.
          No. of atoms     :     5
          No. of electrons :    18
           Alpha electrons :     9
            Beta electrons :     9
          Charge           :    -1
          Spin multiplicity:     1
          Use of symmetry is: on ; symmetry adaption is: on 
          Maximum number of iterations:  30
          AO basis - number of functions:    36
                     number of shells:    18
          Convergence on energy requested: 1.00D-06
          Convergence on density requested: 1.00D-05
          Convergence on gradient requested: 5.00D-04

              XC Information
              --------------
                         B3LYP Method XC Potential
                     Hartree-Fock (Exact) Exchange  0.200          
                        Slater Exchange Functional  0.800 local    
                    Becke 1988 Exchange Functional  0.720 non-local
              Lee-Yang-Parr Correlation Functional  0.810          
                  VWN I RPA Correlation Functional  0.190 local    

             Grid Information
             ----------------
          Grid used for XC integration:  medium    
          Radial quadrature: Mura-Knowles        
          Angular quadrature: Lebedev. 
          Tag              B.-S. Rad. Rad. Pts. Rad. Cut. Ang. Pts.
          ---              ---------- --------- --------- ---------
          o                   0.60       49           7.0       434
          c                   0.70       49           6.0       434
          h                   0.35       45           6.0       434
          Grid pruning is: on 
          Number of quadrature shells:   143
          Spatial weights used:  Erf1

          Convergence Information
          -----------------------
          Convergence aids based upon iterative change in 
          total energy or number of iterations. 
          Levelshifting, if invoked, occurs when the 
          HOMO/LUMO gap drops below (HL_TOL): 1.00D-02
          DIIS, if invoked, will attempt to extrapolate 
          using up to (NFOCK): 10 stored Fock matrices.

                    Damping( 0%)  Levelshifting(0.5)       DIIS
                  --------------- ------------------- ---------------
          dE  on:    start            ASAP                start   
          dE off:    2 iters         30 iters            30 iters 


      Screening Tolerance Information
      -------------------------------
          Density screening/tol_rho: 1.00D-10
          AO Gaussian exp screening on grid/accAOfunc:  14
          CD Gaussian exp screening on grid/accCDfunc:  20
          XC Gaussian exp screening on grid/accXCfunc:  20
          Schwarz screening/accCoul: 1.00D-08


 Loading old vectors from job with title :




      Symmetry analysis of molecular orbitals - initial
      -------------------------------------------------

  Numbering of irreducible representations: 

     1 a1          2 a2          3 e       

  Orbital symmetries:

     1 a1          2 a1          3 a1          4 a1          5 e       
     6 e           7 a1          8 e           9 e          10 a1      
    11 e          12 e          13 a1         14 e          15 e       
    16 a1         17 a1         18 e          19 e       

   Time after variat. SCF:      2.5
   Time prior to 1st pass:      2.5

 #quartets = 6.627D+03 #integrals = 7.315D+04 #direct =  0.0% #cached =100.0%


 Integral file          = /home/d3y133/nwchem-releases/nwchem-6.3/QA/scratchdir/h3cona_dat.aoints.0
 Record size in doubles =  65536        No. of integs per rec  =  43688
 Max. records in memory =      2        Max. records in file   =   1316
 No. of bits per label  =      8        No. of bits per value  =     64


File balance: exchanges=     0  moved=     0  time=   0.0


 Grid_pts file          = /home/d3y133/nwchem-releases/nwchem-6.3/QA/scratchdir/h3cona_dat.gridpts.0
 Record size in doubles =  12289        No. of grid_pts per rec  =   3070
 Max. records in memory =      7        Max. recs in file   =      7022


           Memory utilization after 1st SCF pass: 
           Heap Space remaining (MW):       12.89            12887247
          Stack Space remaining (MW):       13.11            13106872

   convergence    iter        energy       DeltaE   RMS-Dens  Diis-err    time
 ---------------- ----- ----------------- --------- --------- ---------  ------
     COSMO solvation phase
 d= 0,ls=0.0,diis     1   -115.1904807395 -1.49D+02  2.04D-03  3.78D-03     2.7
 d= 0,ls=0.0,diis     2   -115.1907574931 -2.77D-04  1.13D-03  3.54D-03     2.8
 d= 0,ls=0.0,diis     3   -115.1911013593 -3.44D-04  4.00D-04  3.09D-04     2.9
 d= 0,ls=0.0,diis     4   -115.1911252666 -2.39D-05  1.53D-04  4.56D-05     3.0
 d= 0,ls=0.0,diis     5   -115.1911301522 -4.89D-06  6.91D-06  1.75D-07     3.1
  Resetting Diis
 d= 0,ls=0.0,diis     6   -115.1911301674 -1.52D-08  1.06D-06  2.76D-09     3.2
 d= 0,ls=0.0,diis     7   -115.1911301741 -6.66D-09  1.14D-07  1.69D-11     3.3


         Total DFT energy =     -115.191130174087
      One electron energy =     -234.078030681765
           Coulomb energy =       96.126636702276
    Exchange-Corr. energy =      -15.407900247230
 Nuclear repulsion energy =       34.054361819622

 Numeric. integr. density =       17.999999406289

     Total iterative time =      0.8s


                  COSMO solvation results
                  -----------------------
  
     skipped: no gas phase energy
                 sol phase energy =      -115.1911301741

                  Occupations of the irreducible representations
                  ----------------------------------------------

                     irrep           alpha         beta
                     --------     --------     --------
                     a1                5.0          5.0
                     a2                0.0          0.0
                     e                 4.0          4.0


                       DFT Final Molecular Orbital Analysis
                       ------------------------------------

 Vector    1  Occ=2.000000D+00  E=-1.897482D+01  Symmetry=a1
              MO Center=  1.1D-19,  1.2D-19,  8.3D-01, r^2= 1.5D-02
   Bfn.  Coefficient  Atom+Function         Bfn.  Coefficient  Atom+Function  
  ----- ------------  ---------------      ----- ------------  ---------------
     1      0.992907  1 O  s          

 Vector    2  Occ=2.000000D+00  E=-1.016803D+01  Symmetry=a1
              MO Center= -1.7D-21, -1.7D-21, -5.3D-01, r^2= 2.8D-02
   Bfn.  Coefficient  Atom+Function         Bfn.  Coefficient  Atom+Function  
  ----- ------------  ---------------      ----- ------------  ---------------
    16      0.992974  2 C  s          

 Vector    3  Occ=2.000000D+00  E=-8.426884D-01  Symmetry=a1
              MO Center= -3.1D-17, -6.5D-19,  4.3D-01, r^2= 6.7D-01
   Bfn.  Coefficient  Atom+Function         Bfn.  Coefficient  Atom+Function  
  ----- ------------  ---------------      ----- ------------  ---------------
     6      0.422226  1 O  s                  2      0.412243  1 O  s          
    17      0.214049  2 C  s                  1     -0.192382  1 O  s          

 Vector    4  Occ=2.000000D+00  E=-5.768355D-01  Symmetry=a1
              MO Center= -2.3D-17,  1.4D-16, -6.3D-01, r^2= 1.4D+00
   Bfn.  Coefficient  Atom+Function         Bfn.  Coefficient  Atom+Function  
  ----- ------------  ---------------      ----- ------------  ---------------
    17     -0.312386  2 C  s                 21     -0.292849  2 C  s          
     6      0.286681  1 O  s                  2      0.210114  1 O  s          
    20      0.202125  2 C  pz                16      0.155302  2 C  s          

 Vector    5  Occ=2.000000D+00  E=-3.575756D-01  Symmetry=e
              MO Center= -1.8D-01,  9.6D-02, -5.8D-01, r^2= 1.4D+00
   Bfn.  Coefficient  Atom+Function         Bfn.  Coefficient  Atom+Function  
  ----- ------------  ---------------      ----- ------------  ---------------
    18      0.418502  2 C  px                34     -0.241789  4 H  s          
    33     -0.239767  4 H  s                 22      0.190106  2 C  px         
     3      0.184163  1 O  px         

 Vector    6  Occ=2.000000D+00  E=-3.575756D-01  Symmetry=e
              MO Center=  1.8D-01, -9.6D-02, -5.8D-01, r^2= 1.4D+00
   Bfn.  Coefficient  Atom+Function         Bfn.  Coefficient  Atom+Function  
  ----- ------------  ---------------      ----- ------------  ---------------
    19      0.418502  2 C  py                36     -0.222603  5 H  s          
    35     -0.220741  5 H  s                 32      0.196188  3 H  s          
    31      0.194547  3 H  s                 23      0.190106  2 C  py         
     4      0.184163  1 O  py         

 Vector    7  Occ=2.000000D+00  E=-2.949704D-01  Symmetry=a1
              MO Center= -3.0D-18, -6.9D-18,  5.9D-01, r^2= 1.2D+00
   Bfn.  Coefficient  Atom+Function         Bfn.  Coefficient  Atom+Function  
  ----- ------------  ---------------      ----- ------------  ---------------
     5      0.480848  1 O  pz                 6      0.447302  1 O  s          
    20     -0.359318  2 C  pz                 9      0.297471  1 O  pz         

 Vector    8  Occ=2.000000D+00  E=-1.349458D-01  Symmetry=e
              MO Center=  8.4D-02, -1.2D-02,  4.9D-01, r^2= 1.4D+00
   Bfn.  Coefficient  Atom+Function         Bfn.  Coefficient  Atom+Function  
  ----- ------------  ---------------      ----- ------------  ---------------
     4      0.544792  1 O  py                 8      0.463079  1 O  py         
    32     -0.305230  3 H  s                 36      0.284805  5 H  s          
     3      0.181558  1 O  px                 7      0.154326  1 O  px         

 Vector    9  Occ=2.000000D+00  E=-1.349458D-01  Symmetry=e
              MO Center= -8.4D-02,  1.2D-02,  4.9D-01, r^2= 1.4D+00
   Bfn.  Coefficient  Atom+Function         Bfn.  Coefficient  Atom+Function  
  ----- ------------  ---------------      ----- ------------  ---------------
     3      0.544792  1 O  px                 7      0.463079  1 O  px         
    34      0.340656  4 H  s                 36     -0.188017  5 H  s          
     4     -0.181558  1 O  py                33      0.160802  4 H  s          
     8     -0.154326  1 O  py                32     -0.152640  3 H  s          

 Vector   10  Occ=0.000000D+00  E= 1.404189D-01  Symmetry=a1
              MO Center= -8.6D-16, -3.3D-16, -1.1D+00, r^2= 3.4D+00
   Bfn.  Coefficient  Atom+Function         Bfn.  Coefficient  Atom+Function  
  ----- ------------  ---------------      ----- ------------  ---------------
    21      2.257409  2 C  s                 32     -1.160430  3 H  s          
    34     -1.160430  4 H  s                 36     -1.160430  5 H  s          
    24     -0.753922  2 C  pz                20     -0.217696  2 C  pz         
    17      0.157641  2 C  s          

 Vector   11  Occ=0.000000D+00  E= 2.137967D-01  Symmetry=e
              MO Center= -3.4D-01,  2.5D-01, -8.9D-01, r^2= 2.8D+00
   Bfn.  Coefficient  Atom+Function         Bfn.  Coefficient  Atom+Function  
  ----- ------------  ---------------      ----- ------------  ---------------
    34      1.639702  4 H  s                 22      1.267305  2 C  px         
    32     -1.080388  3 H  s                 36     -0.559314  5 H  s          
    18      0.469879  2 C  px                 7     -0.321293  1 O  px         
     3     -0.158945  1 O  px         

 Vector   12  Occ=0.000000D+00  E= 2.137967D-01  Symmetry=e
              MO Center=  3.4D-01, -2.5D-01, -8.9D-01, r^2= 2.8D+00
   Bfn.  Coefficient  Atom+Function         Bfn.  Coefficient  Atom+Function  
  ----- ------------  ---------------      ----- ------------  ---------------
    36      1.570445  5 H  s                 23      1.267305  2 C  py         
    32     -1.269603  3 H  s                 19      0.469879  2 C  py         
     8     -0.321293  1 O  py                34     -0.300842  4 H  s          
     4     -0.158945  1 O  py         

 Vector   13  Occ=0.000000D+00  E= 2.579951D-01  Symmetry=a1
              MO Center=  1.1D-17,  2.5D-18, -4.4D-01, r^2= 2.4D+00
   Bfn.  Coefficient  Atom+Function         Bfn.  Coefficient  Atom+Function  
  ----- ------------  ---------------      ----- ------------  ---------------
     6      1.657128  1 O  s                 24     -1.660259  2 C  pz         
    21     -1.355926  2 C  s                  9     -0.932977  1 O  pz         
     5     -0.271331  1 O  pz         

 Vector   14  Occ=0.000000D+00  E= 6.257890D-01  Symmetry=e
              MO Center= -1.1D-01,  1.9D-01, -4.6D-01, r^2= 2.1D+00
   Bfn.  Coefficient  Atom+Function         Bfn.  Coefficient  Atom+Function  
  ----- ------------  ---------------      ----- ------------  ---------------
    23      1.700978  2 C  py                19     -0.761720  2 C  py         
    35      0.451578  5 H  s                 36      0.423650  5 H  s          
    31     -0.276960  3 H  s                 32     -0.259832  3 H  s          
     8     -0.232638  1 O  py                22     -0.225308  2 C  px         
     4     -0.206562  1 O  py                33     -0.174617  4 H  s          

 Vector   15  Occ=0.000000D+00  E= 6.257890D-01  Symmetry=e
              MO Center=  1.1D-01, -1.9D-01, -4.6D-01, r^2= 2.1D+00
   Bfn.  Coefficient  Atom+Function         Bfn.  Coefficient  Atom+Function  
  ----- ------------  ---------------      ----- ------------  ---------------
    22      1.700978  2 C  px                18     -0.761720  2 C  px         
    33      0.420622  4 H  s                 34      0.394608  4 H  s          
    31     -0.361534  3 H  s                 32     -0.339175  3 H  s          
     7     -0.232638  1 O  px                23      0.225308  2 C  py         
     3     -0.206562  1 O  px         

 Vector   16  Occ=0.000000D+00  E= 6.422399D-01  Symmetry=a1
              MO Center= -1.5D-15, -3.8D-16, -1.8D-01, r^2= 1.4D+00
   Bfn.  Coefficient  Atom+Function         Bfn.  Coefficient  Atom+Function  
  ----- ------------  ---------------      ----- ------------  ---------------
    24      1.190661  2 C  pz                20     -1.007016  2 C  pz         
     6     -0.627744  1 O  s                 17     -0.437153  2 C  s          
     5     -0.396985  1 O  pz                21      0.188288  2 C  s          
     2      0.187041  1 O  s          

 Vector   17  Occ=0.000000D+00  E= 8.755763D-01  Symmetry=e
              MO Center=  3.3D-01,  2.3D-01, -8.9D-01, r^2= 2.0D+00
   Bfn.  Coefficient  Atom+Function         Bfn.  Coefficient  Atom+Function  
  ----- ------------  ---------------      ----- ------------  ---------------
    32      1.597845  3 H  s                 23     -0.953009  2 C  py         
    36     -0.917714  5 H  s                 31     -0.822432  3 H  s          
    22     -0.802321  2 C  px                34     -0.680131  4 H  s          
    19      0.603446  2 C  py                18      0.508031  2 C  px         
    35      0.472359  5 H  s                 33      0.350072  4 H  s          

 Vector   18  Occ=0.000000D+00  E= 8.755763D-01  Symmetry=e
              MO Center= -3.3D-01, -2.3D-01, -8.9D-01, r^2= 2.0D+00
   Bfn.  Coefficient  Atom+Function         Bfn.  Coefficient  Atom+Function  
  ----- ------------  ---------------      ----- ------------  ---------------
    34      1.452358  4 H  s                 36     -1.315190  5 H  s          
    22      0.953009  2 C  px                23     -0.802321  2 C  py         
    33     -0.747548  4 H  s                 35      0.676946  5 H  s          
    18     -0.603446  2 C  px                19      0.508031  2 C  py         
    27     -0.177183  2 C  dxz        

 Vector   19  Occ=0.000000D+00  E= 9.056880D-01  Symmetry=a1
              MO Center=  2.9D-15, -2.7D-15,  5.7D-01, r^2= 2.6D+00
   Bfn.  Coefficient  Atom+Function         Bfn.  Coefficient  Atom+Function  
  ----- ------------  ---------------      ----- ------------  ---------------
     6      1.584504  1 O  s                  2     -0.880840  1 O  s          
    21      0.609313  2 C  s                  9      0.574226  1 O  pz         
    24     -0.522316  2 C  pz                 5     -0.492034  1 O  pz         
    31     -0.405411  3 H  s                 33     -0.405411  4 H  s          
    35     -0.405411  5 H  s                 15     -0.338003  1 O  dzz        


 center of mass
 --------------
 x =   0.00000000 y =   0.00000000 z =   0.23412565

 moments of inertia (a.u.)
 ------------------
          66.383003597772           0.000000000000           0.000000000000
           0.000000000000          66.383003597772           0.000000000000
           0.000000000000           0.000000000000          11.180454718053

     Multipole analysis of the density
     ---------------------------------

     L   x y z        total         alpha         beta         nuclear
     -   - - -        -----         -----         ----         -------
     0   0 0 0     -1.000000     -9.000000     -9.000000     17.000000

     1   1 0 0      0.000000      0.000000      0.000000      0.000000
     1   0 1 0      0.000000      0.000000      0.000000      0.000000
     1   0 0 1     -1.146836     -0.959182     -0.959182      0.771528

     2   2 0 0    -11.601238     -8.574031     -8.574031      5.546823
     2   1 1 0      0.000000      0.000000      0.000000      0.000000
     2   1 0 1      0.000000      0.000000      0.000000      0.000000
     2   0 2 0    -11.601238     -8.574031     -8.574031      5.546823
     2   0 1 1      0.000000      0.000000      0.000000      0.000000
     2   0 0 2    -14.394481    -25.578514    -25.578514     36.762547


 Parallel integral file used       4 records with       0 large values

 Line search: 
     step= 1.00 grad=-5.2D-03 hess= 2.2D-03 energy=   -115.191130 mode=downhill
 new step= 1.20                   predicted energy=   -115.191220

          --------
          Step   1
          --------


                         Geometry "geometry" -> "geometry"
                         ---------------------------------

 Output coordinates in angstroms (scale by  1.889725989 to convert to a.u.)

  No.       Tag          Charge          X              Y              Z
 ---- ---------------- ---------- -------------- -------------- --------------
    1 o                    8.0000     0.00000000     0.00000000     0.83695370
    2 c                    6.0000     0.00000000     0.00000000    -0.52263922
    3 h                    1.0000     0.72032668     0.72032668    -1.02275538
    4 h                    1.0000    -0.98398454     0.26365786    -1.02275538
    5 h                    1.0000     0.26365786    -0.98398454    -1.02275538

      Atomic Mass 
      ----------- 

      o                 15.994910
      c                 12.000000
      h                  1.007825


 Effective nuclear repulsion energy (a.u.)      33.9650605309

            Nuclear Dipole moment (a.u.) 
            ----------------------------
        X                 Y               Z
 ---------------- ---------------- ----------------
     0.0000000000     0.0000000000     0.9288535446

      Symmetry information
      --------------------

 Group name             C3v       
 Group number             17
 Group order               6
 No. of unique centers     3

      Symmetry unique atoms

     1    2    3


                                 NWChem DFT Module
                                 -----------------



          ---------------
          -cosmo- solvent
          ---------------
 dielectric constant -eps-  =  78.40
 charge screening approach  =   1
 screen = (eps-1)/(eps    ) =   0.98724
 -lineq- algorithm          =   1
 -bem- low  level           =   2
 -bem- high level           =   3
 -bem- from -octahedral-
 solvent radius (ang.)      =   0.500
 atomic radii = 
 --------------
    1  8.000  1.720
    2  6.000  2.000
    3  1.000  1.300
    4  1.000  1.300
    5  1.000  1.300

 solvent accessible surface
 --------------------------

 ---------- ATOMIC COORDINATES (A.U.) ------------ VDWR(ANG.) --
     1    0.00000000    0.00000000    1.58161317     1.720
     2    0.00000000    0.00000000   -0.98764492     2.000
     3    1.36122004    1.36122004   -1.93272742     1.300
     4   -1.85946116    0.49824112   -1.93272742     1.300
     5    0.49824112   -1.85946116   -1.93272742     1.300
 number of segments per atom =         32
 number of   points per atom =        128
 atom (   nspa,  nppa )
 ----------------------
    1 (     16,    64 )      64
    2 (     23,    44 )      44
    3 (     15,    38 )      38
    4 (     11,    35 )      35
    5 (     11,    35 )      35
 number of -cosmo- surface points =       76
[...]

 Vector   15  Occ=0.000000D+00  E= 6.277308D-01  Symmetry=e
              MO Center=  7.7D-02,  2.0D-01, -4.4D-01, r^2= 2.0D+00
   Bfn.  Coefficient  Atom+Function         Bfn.  Coefficient  Atom+Function  
  ----- ------------  ---------------      ----- ------------  ---------------
    23      1.436727  2 C  py                22     -0.937279  2 C  px         
    19     -0.653388  2 C  py                18      0.426251  2 C  px         
    35      0.425417  5 H  s                 36      0.405206  5 H  s          
    33     -0.333264  4 H  s                 34     -0.317431  4 H  s          
     8     -0.197809  1 O  py                 4     -0.176084  1 O  py         

 Vector   16  Occ=0.000000D+00  E= 6.576379D-01  Symmetry=a1
              MO Center= -1.9D-16,  3.5D-16, -1.2D-01, r^2= 1.3D+00
   Bfn.  Coefficient  Atom+Function         Bfn.  Coefficient  Atom+Function  
  ----- ------------  ---------------      ----- ------------  ---------------
    24      1.141410  2 C  pz                20     -1.010410  2 C  pz         
     6     -0.576710  1 O  s                 17     -0.452533  2 C  s          
     5     -0.401820  1 O  pz                 2      0.195769  1 O  s          
    21      0.151935  2 C  s          

 Vector   17  Occ=0.000000D+00  E= 8.669407D-01  Symmetry=e
              MO Center=  2.9D-01,  2.9D-01, -9.0D-01, r^2= 2.1D+00
   Bfn.  Coefficient  Atom+Function         Bfn.  Coefficient  Atom+Function  
  ----- ------------  ---------------      ----- ------------  ---------------
    32      1.592331  3 H  s                 23     -0.859360  2 C  py         
    22     -0.853651  2 C  px                31     -0.832345  3 H  s          
    36     -0.800761  5 H  s                 34     -0.791570  4 H  s          
    19      0.543419  2 C  py                18      0.539809  2 C  px         
    35      0.418575  5 H  s                 33      0.413770  4 H  s          

 Vector   18  Occ=0.000000D+00  E= 8.669407D-01  Symmetry=e
              MO Center= -2.9D-01, -2.9D-01, -9.0D-01, r^2= 2.1D+00
   Bfn.  Coefficient  Atom+Function         Bfn.  Coefficient  Atom+Function  
  ----- ------------  ---------------      ----- ------------  ---------------
    34      1.381652  4 H  s                 36     -1.376346  5 H  s          
    22      0.859360  2 C  px                23     -0.853651  2 C  py         
    33     -0.722219  4 H  s                 35      0.719445  5 H  s          
    18     -0.543419  2 C  px                19      0.539809  2 C  py         
    27     -0.165434  2 C  dxz               29      0.164335  2 C  dyz        

 Vector   19  Occ=0.000000D+00  E= 9.081895D-01  Symmetry=a1
              MO Center= -5.5D-16,  5.2D-16,  6.7D-01, r^2= 2.5D+00
   Bfn.  Coefficient  Atom+Function         Bfn.  Coefficient  Atom+Function  
  ----- ------------  ---------------      ----- ------------  ---------------
     6      1.573869  1 O  s                  2     -0.863738  1 O  s          
     9      0.633324  1 O  pz                 5     -0.529091  1 O  pz         
    24     -0.518137  2 C  pz                21      0.487214  2 C  s          
    31     -0.377958  3 H  s                 33     -0.377958  4 H  s          
    35     -0.377958  5 H  s                 15     -0.339172  1 O  dzz        


 center of mass
 --------------
 x =   0.00000000 y =   0.00000000 z =   0.24070783

 moments of inertia (a.u.)
 ------------------
          65.029145537312           0.000000000000           0.000000000000
           0.000000000000          65.029145537312           0.000000000000
           0.000000000000           0.000000000000          11.221802232019

     Multipole analysis of the density
     ---------------------------------

     L   x y z        total         alpha         beta         nuclear
     -   - - -        -----         -----         ----         -------
     0   0 0 0     -1.000000     -9.000000     -9.000000     17.000000

     1   1 0 0      0.000000      0.000000      0.000000      0.000000
     1   0 1 0      0.000000      0.000000      0.000000      0.000000
     1   0 0 1     -1.053659     -0.957996     -0.957996      0.862332

     2   2 0 0    -11.700021     -8.633679     -8.633679      5.567337
     2   1 1 0      0.000000      0.000000      0.000000      0.000000
     2   1 0 1      0.000000      0.000000      0.000000      0.000000
     2   0 2 0    -11.700021     -8.633679     -8.633679      5.567337
     2   0 1 1      0.000000      0.000000      0.000000      0.000000
     2   0 0 2    -14.441543    -25.304294    -25.304294     36.167046


 Parallel integral file used       4 records with       0 large values

 Line search: 
     step= 1.00 grad=-2.3D-11 hess= 2.4D-09 energy=   -115.191578 mode=accept  
 new step= 1.00                   predicted energy=   -115.191578

          --------
          Step   1
          --------


                         Geometry "geometry" -> "geometry"
                         ---------------------------------

 Output coordinates in angstroms (scale by  1.889725989 to convert to a.u.)

  No.       Tag          Charge          X              Y              Z
 ---- ---------------- ---------- -------------- -------------- --------------
    1 o                    8.0000     0.00000000     0.00000000     0.82360136
    2 c                    6.0000     0.00000000     0.00000000    -0.51098623
    3 h                    1.0000     0.72088216     0.72088216    -1.02218893
    4 h                    1.0000    -0.98474335     0.26386119    -1.02218893
    5 h                    1.0000     0.26386119    -0.98474335    -1.02218893

      Atomic Mass 
      ----------- 

      o                 15.994910
      c                 12.000000
      h                  1.007825


 Effective nuclear repulsion energy (a.u.)      34.3065291439

            Nuclear Dipole moment (a.u.) 
            ----------------------------
        X                 Y               Z
 ---------------- ---------------- ----------------
     0.0000000000     0.0000000000     0.8623324651

      Symmetry information
      --------------------

 Group name             C3v       
 Group number             17
 Group order               6
 No. of unique centers     3

      Symmetry unique atoms

     1    2    3


                                 NWChem DFT Module
                                 -----------------



          ---------------
          -cosmo- solvent
          ---------------
 dielectric constant -eps-  =  78.40
 charge screening approach  =   1
 screen = (eps-1)/(eps    ) =   0.98724
 -lineq- algorithm          =   1
 -bem- low  level           =   2
 -bem- high level           =   3
 -bem- from -octahedral-
 solvent radius (ang.)      =   0.500
 atomic radii = 
 --------------
    1  8.000  1.720
    2  6.000  2.000
    3  1.000  1.300
    4  1.000  1.300
    5  1.000  1.300

 solvent accessible surface
 --------------------------

 ---------- ATOMIC COORDINATES (A.U.) ------------ VDWR(ANG.) --
     1    0.00000000    0.00000000    1.55638089     1.720
     2    0.00000000    0.00000000   -0.96562395     2.000
     3    1.36226976    1.36226976   -1.93165698     1.300
     4   -1.86089510    0.49862534   -1.93165698     1.300
     5    0.49862534   -1.86089510   -1.93165698     1.300
 number of segments per atom =         32
 number of   points per atom =        128
 atom (   nspa,  nppa )
 ----------------------
    1 (     16,    64 )      64
    2 (     23,    43 )      43
    3 (     15,    38 )      38
    4 (     11,    35 )      35
    5 (     11,    35 )      35
 number of -cosmo- surface points =       76
 molecular surface =     53.393 angstrom**2
 molecular volume  =     29.679 angstrom**3
 G(cav/disp)       =      1.127 kcal/mol
 ...... end of -cosmo- initialization ......



  The DFT is already converged 

         Total DFT energy =   -115.191577521133



                            NWChem DFT Gradient Module
                            --------------------------



  charge          =  -1.00
  wavefunction    = closed shell

  Rotation of axis 
  Using symmetry


                         DFT ENERGY GRADIENTS

    atom               coordinates                        gradient
                 x          y          z           x          y          z
   1 o       0.000000   0.000000   1.556381    0.000000   0.000000   0.000000
   2 c       0.000000   0.000000  -0.965624    0.000000   0.000000   0.000000
   3 h       1.362270   1.362270  -1.931657    0.000000   0.000000   0.000000
   4 h      -1.860895   0.498625  -1.931657    0.000000   0.000000   0.000000
   5 h       0.498625  -1.860895  -1.931657    0.000000   0.000000   0.000000

                 ----------------------------------------
                 |  Time  |  1-e(secs)   |  2-e(secs)   |
                 ----------------------------------------
                 |  CPU   |       0.01   |       0.19   |
                 ----------------------------------------
                 |  WALL  |       0.03   |       0.19   |
                 ----------------------------------------

  Step       Energy      Delta E   Gmax     Grms     Xrms     Xmax   Walltime
  ---- ---------------- -------- -------- -------- -------- -------- --------
@    1    -115.19157752  2.4D-09  0.00000  0.00000  0.00000  0.00001     17.9
                                     ok       ok       ok       ok  



                                Z-matrix (autoz)
                                -------- 

 Units are Angstrom for bonds and degrees for angles

      Type          Name      I     J     K     L     M      Value     Gradient
      ----------- --------  ----- ----- ----- ----- ----- ---------- ----------
    1 Stretch                  1     2                       1.33459    0.00000
    2 Stretch                  2     3                       1.14047    0.00000
    3 Stretch                  2     4                       1.14047    0.00000
    4 Stretch                  2     5                       1.14047    0.00000
    5 Bend                     1     2     3               116.63075    0.00000
    6 Bend                     1     2     4               116.63075    0.00000
    7 Bend                     1     2     5               116.63075    0.00000
    8 Bend                     3     2     4               101.45644    0.00000
    9 Bend                     3     2     5               101.45644    0.00000
   10 Bend                     4     2     5               101.45644    0.00000


      ----------------------
      Optimization converged
      ----------------------


  Step       Energy      Delta E   Gmax     Grms     Xrms     Xmax   Walltime
  ---- ---------------- -------- -------- -------- -------- -------- --------
@    1    -115.19157752  2.4D-09  0.00000  0.00000  0.00000  0.00001     17.9
                                     ok       ok       ok       ok  



                                Z-matrix (autoz)
                                -------- 

 Units are Angstrom for bonds and degrees for angles

      Type          Name      I     J     K     L     M      Value     Gradient
      ----------- --------  ----- ----- ----- ----- ----- ---------- ----------
    1 Stretch                  1     2                       1.33459    0.00000
    2 Stretch                  2     3                       1.14047    0.00000
    3 Stretch                  2     4                       1.14047    0.00000
    4 Stretch                  2     5                       1.14047    0.00000
    5 Bend                     1     2     3               116.63075    0.00000
    6 Bend                     1     2     4               116.63075    0.00000
    7 Bend                     1     2     5               116.63075    0.00000
    8 Bend                     3     2     4               101.45644    0.00000
    9 Bend                     3     2     5               101.45644    0.00000
   10 Bend                     4     2     5               101.45644    0.00000



                         Geometry "geometry" -> "geometry"
                         ---------------------------------

 Output coordinates in angstroms (scale by  1.889725989 to convert to a.u.)

  No.       Tag          Charge          X              Y              Z
 ---- ---------------- ---------- -------------- -------------- --------------
    1 o                    8.0000     0.00000000     0.00000000     0.82360136
    2 c                    6.0000     0.00000000     0.00000000    -0.51098623
    3 h                    1.0000     0.72088216     0.72088216    -1.02218893
    4 h                    1.0000    -0.98474335     0.26386119    -1.02218893
    5 h                    1.0000     0.26386119    -0.98474335    -1.02218893

      Atomic Mass 
      ----------- 

      o                 15.994910
      c                 12.000000
      h                  1.007825


 Effective nuclear repulsion energy (a.u.)      34.3065291439

            Nuclear Dipole moment (a.u.) 
            ----------------------------
        X                 Y               Z
 ---------------- ---------------- ----------------
     0.0000000000     0.0000000000     0.8623324651

      Symmetry information
      --------------------

 Group name             C3v       
 Group number             17
 Group order               6
 No. of unique centers     3

      Symmetry unique atoms

     1    2    3


                Final and change from initial internal coordinates
                --------------------------------------------------



                                Z-matrix (autoz)
                                -------- 

 Units are Angstrom for bonds and degrees for angles

      Type          Name      I     J     K     L     M      Value       Change
      ----------- --------  ----- ----- ----- ----- ----- ---------- ----------
    1 Stretch                  1     2                       1.33459    0.00000
    2 Stretch                  2     3                       1.14047    0.00000
    3 Stretch                  2     4                       1.14047    0.00000
    4 Stretch                  2     5                       1.14047    0.00000
    5 Bend                     1     2     3               116.63075    0.00018
    6 Bend                     1     2     4               116.63075    0.00018
    7 Bend                     1     2     5               116.63075    0.00018
    8 Bend                     3     2     4               101.45644   -0.00022
    9 Bend                     3     2     5               101.45644   -0.00022
   10 Bend                     4     2     5               101.45644   -0.00022

 ==============================================================================
                                internuclear distances
 ------------------------------------------------------------------------------
       center one      |      center two      | atomic units |  angstroms
 ------------------------------------------------------------------------------
    2 c                |   1 o                |     2.52200  |     1.33459
    3 h                |   2 c                |     2.15517  |     1.14047
    4 h                |   2 c                |     2.15517  |     1.14047
    5 h                |   2 c                |     2.15517  |     1.14047
 ------------------------------------------------------------------------------
                         number of included internuclear distances:          4
 ==============================================================================



 ==============================================================================
                                 internuclear angles
 ------------------------------------------------------------------------------
        center 1       |       center 2       |       center 3       |  degrees
 ------------------------------------------------------------------------------
    1 o                |   2 c                |   3 h                |   116.63
    1 o                |   2 c                |   4 h                |   116.63
    1 o                |   2 c                |   5 h                |   116.63
    3 h                |   2 c                |   4 h                |   101.46
    3 h                |   2 c                |   5 h                |   101.46
    4 h                |   2 c                |   5 h                |   101.46
 ------------------------------------------------------------------------------
                            number of included internuclear angles:          6
 ==============================================================================




 Task  times  cpu:        3.3s     wall:        4.3s
 Summary of allocated global arrays
-----------------------------------
  No active global arrays



                         GA Statistics for process    0
                         ------------------------------

       create   destroy   get      put      acc     scatter   gather  read&inc
calls: 3035     3035     8.47e+04 8101     2.72e+04    0        0     2855     
number of processes/call 1.20e+00 1.51e+00 1.16e+00 0.00e+00 0.00e+00
bytes total:             5.83e+07 1.56e+07 2.80e+07 0.00e+00 0.00e+00 2.28e+04
bytes remote:            1.80e+07 3.05e+06 9.67e+06 0.00e+00 0.00e+00 0.00e+00
Max memory consumed for GA by this process: 272352 bytes
MA_summarize_allocated_blocks: starting scan ...
MA_summarize_allocated_blocks: scan completed: 0 heap blocks, 0 stack blocks
MA usage statistics:

	allocation statistics:
					      heap	     stack
					      ----	     -----
	current number of blocks	         0	         0
	maximum number of blocks	        29	        51
	current total bytes		         0	         0
	maximum total bytes		   1759208	  32696584
	maximum total K-bytes		      1760	     32697
	maximum total M-bytes		         2	        33


                                NWChem Input Module
                                -------------------





                                     CITATION
                                     --------
                Please cite the following reference when publishing
                           results obtained with NWChem:

                 M. Valiev, E.J. Bylaska, N. Govind, K. Kowalski,
              T.P. Straatsma, H.J.J. van Dam, D. Wang, J. Nieplocha,
                        E. Apra, T.L. Windus, W.A. de Jong
                 "NWChem: a comprehensive and scalable open-source
                  solution for large scale molecular simulations"
                      Comput. Phys. Commun. 181, 1477 (2010)
                           doi:10.1016/j.cpc.2010.04.018

                              AUTHORS & CONTRIBUTORS
                              ----------------------
          E. Apra, E. J. Bylaska, W. A. de Jong, N. Govind, K. Kowalski,
       T. P. Straatsma, M. Valiev, H. J. J. van Dam, D. Wang, T. L. Windus,
        J. Hammond, J. Autschbach, K. Bhaskaran-Nair, J. Brabec, F. Aquino,
     S. Hirata, M. T. Hackler, K. Lopata, J. Mullin, P. Nichols, R. Peverati,
    J. Pittner, Y. Zhao, P.-D. Fan, R. J. Harrison, M. Dupuis, D. M. A. Smith,
 J. Nieplocha, V. Tipparaju, M. Krishnan, B. E. Van Kuiken, A. Vazquez-Mayagoitia
        L. Jensen, M. Swart, Q. Wu, T. Van Voorhis, A. A. Auer, M. Nooijen,
      L. D. Crosby, E. Brown, G. Cisneros, G. I. Fann, H. Fruchtl, J. Garza,
   K. Hirao, R. Kendall, J. A. Nichols, K. Tsemekhman, K. Wolinski, J. Anchell,
       D. Bernholdt, P. Borowski, T. Clark, D. Clerc, H. Dachsel, M. Deegan,
        K. Dyall, D. Elwood, E. Glendening, M. Gutowski, A. Hess, J. Jaffe,
        B. Johnson, J. Ju, R. Kobayashi, R. Kutteh, Z. Lin, R. Littlefield,
   X. Long, B. Meng, T. Nakajima, S. Niu, L. Pollack, M. Rosing, K. Glaesemann,
 G. Sandrone, M. Stave, H. Taylor, G. Thomas, J. H. van Lenthe, A. Wong, Z. Zhang

 Total times  cpu:       12.8s     wall:       17.9s
